 Entering Gaussian System, Link 0=/opt/asn/apps/g09e01_ortiz/g09/g09
 Initial command:
 /opt/asn/apps/g09e01_ortiz/g09/l1.exe "/scratch-local/aubhfc.CH2Cl2C2vcomG09.68332/Gau-33901.inp" -scrdir="/scratch-local/aubhfc.CH2Cl2C2vcomG09.68332/"
 Entering Link 1 = /opt/asn/apps/g09e01_ortiz/g09/l1.exe PID=     33902.
  
 Copyright (c) 1988,1990,1992,1993,1995,1998,2003,2009,2015,
            Gaussian, Inc.  All Rights Reserved.
  
 This is part of the Gaussian(R) 09 program.  It is based on
 the Gaussian(R) 03 system (copyright 2003, Gaussian, Inc.),
 the Gaussian(R) 98 system (copyright 1998, Gaussian, Inc.),
 the Gaussian(R) 94 system (copyright 1995, Gaussian, Inc.),
 the Gaussian 92(TM) system (copyright 1992, Gaussian, Inc.),
 the Gaussian 90(TM) system (copyright 1990, Gaussian, Inc.),
 the Gaussian 88(TM) system (copyright 1988, Gaussian, Inc.),
 the Gaussian 86(TM) system (copyright 1986, Carnegie Mellon
 University), and the Gaussian 82(TM) system (copyright 1983,
 Carnegie Mellon University). Gaussian is a federally registered
 trademark of Gaussian, Inc.
  
 This software contains proprietary and confidential information,
 including trade secrets, belonging to Gaussian, Inc.
  
 This software is provided under written license and may be
 used, copied, transmitted, or stored only in accord with that
 written license.
  
 The following legend is applicable only to US Government
 contracts under FAR:
  
                    RESTRICTED RIGHTS LEGEND
  
 Use, reproduction and disclosure by the US Government is
 subject to restrictions as set forth in subparagraphs (a)
 and (c) of the Commercial Computer Software - Restricted
 Rights clause in FAR 52.227-19.
  
 Gaussian, Inc.
 340 Quinnipiac St., Bldg. 40, Wallingford CT 06492
  
  
 ---------------------------------------------------------------
 Warning -- This program may not be used in any manner that
 competes with the business of Gaussian, Inc. or will provide
 assistance to any competitor of Gaussian, Inc.  The licensee
 of this program is prohibited from giving any competitor of
 Gaussian, Inc. access to this program.  By using this program,
 the user acknowledges that Gaussian, Inc. is engaged in the
 business of creating and licensing software in the field of
 computational chemistry and represents and warrants to the
 licensee that it is not a competitor of Gaussian, Inc. and that
 it will not use this program in any manner prohibited above.
 ---------------------------------------------------------------
  

 Cite this work as:
 Gaussian 09, Revision E.01,
 M. J. Frisch, G. W. Trucks, H. B. Schlegel, G. E. Scuseria, 
 M. A. Robb, J. R. Cheeseman, G. Scalmani, V. Barone, B. Mennucci, 
 G. A. Petersson, H. Nakatsuji, M. Caricato, X. Li, H. P. Hratchian, 
 A. F. Izmaylov, J. Bloino, G. Zheng, J. L. Sonnenberg, M. Hada, 
 M. Ehara, K. Toyota, R. Fukuda, J. Hasegawa, M. Ishida, T. Nakajima, 
 Y. Honda, O. Kitao, H. Nakai, T. Vreven, J. A. Montgomery, Jr., 
 J. E. Peralta, F. Ogliaro, M. Bearpark, J. J. Heyd, E. Brothers, 
 K. N. Kudin, V. N. Staroverov, T. Keith, R. Kobayashi, J. Normand, 
 K. Raghavachari, A. Rendell, J. C. Burant, S. S. Iyengar, J. Tomasi, 
 M. Cossi, N. Rega, J. M. Millam, M. Klene, J. E. Knox, J. B. Cross, 
 V. Bakken, C. Adamo, J. Jaramillo, R. Gomperts, R. E. Stratmann, 
 O. Yazyev, A. J. Austin, R. Cammi, C. Pomelli, J. W. Ochterski, 
 R. L. Martin, K. Morokuma, V. G. Zakrzewski, G. A. Voth, 
 P. Salvador, J. J. Dannenberg, S. Dapprich, A. D. Daniels, 
 O. Farkas, J. B. Foresman, J. V. Ortiz, J. Cioslowski, 
 and D. J. Fox, Gaussian, Inc., Wallingford CT, 2013.
 
 ******************************************
 Gaussian 09:  ES64L-G09RevE.01 30-Nov-2015
                31-Jan-2017 
 ******************************************
 %nprocshared=8
 Will use up to    8 processors via shared memory.
 -------------------------------
 #mp2/6-311++g(2df,2pd) opt freq
 -------------------------------
 1/18=20,19=15,38=1/1,3;
 2/9=110,12=2,17=6,18=5,40=1/2;
 3/5=4,6=6,7=1414,11=9,16=1,25=1,30=1,71=1/1,2,3;
 4//1;
 5/5=2,38=5/2;
 8/6=4,10=2/1;
 9/15=2,16=-3/6;
 10/5=1/2;
 6/7=2,8=2,9=2,10=2/1;
 7/12=2/1,2,3,16;
 1/18=20,19=15/3(2);
 2/9=110/2;
 99//99;
 2/9=110/2;
 3/5=4,6=6,7=1414,11=9,16=1,25=1,30=1,71=1/1,2,3;
 4/5=5,16=3,69=1/1;
 5/5=2,38=5/2;
 8/6=4,10=2/1;
 9/15=2,16=-3/6;
 10/5=1/2;
 7/12=2/1,2,3,16;
 1/18=20,19=15/3(-8);
 2/9=110/2;
 6/7=2,8=2,9=2,10=2/1;
 99//99;
 ----------
 CH2Cl2_C2v
 ----------
 Symbolic Z-matrix:
 Charge =  0 Multiplicity = 1
 C                    0     0.        0.        0.75859 
 Cl                   0     0.        1.47585  -0.21398 
 Cl                   0     0.       -1.47585  -0.21398 
 H                    0     0.89503   0.        1.37386 
 H                    0    -0.89503   0.        1.37386 
 

 GradGradGradGradGradGradGradGradGradGradGradGradGradGradGradGradGradGrad
 Berny optimization.
 Initialization pass.
                           ----------------------------
                           !    Initial Parameters    !
                           ! (Angstroms and Degrees)  !
 --------------------------                            --------------------------
 ! Name  Definition              Value          Derivative Info.                !
 --------------------------------------------------------------------------------
 ! R1    R(1,2)                  1.7675         estimate D2E/DX2                !
 ! R2    R(1,3)                  1.7675         estimate D2E/DX2                !
 ! R3    R(1,4)                  1.0861         estimate D2E/DX2                !
 ! R4    R(1,5)                  1.0861         estimate D2E/DX2                !
 ! A1    A(2,1,3)              113.2312         estimate D2E/DX2                !
 ! A2    A(2,1,4)              108.1625         estimate D2E/DX2                !
 ! A3    A(2,1,5)              108.1625         estimate D2E/DX2                !
 ! A4    A(3,1,4)              108.1625         estimate D2E/DX2                !
 ! A5    A(3,1,5)              108.1625         estimate D2E/DX2                !
 ! A6    A(4,1,5)              110.9884         estimate D2E/DX2                !
 ! D1    D(2,1,4,3)           -122.9916         estimate D2E/DX2                !
 ! D2    D(2,1,5,3)            122.9916         estimate D2E/DX2                !
 ! D3    D(2,1,5,4)           -118.5042         estimate D2E/DX2                !
 ! D4    D(3,1,5,4)            118.5042         estimate D2E/DX2                !
 --------------------------------------------------------------------------------
 Trust Radius=3.00D-01 FncErr=1.00D-07 GrdErr=1.00D-07
 Number of steps in this run=     24 maximum allowed number of steps=    100.
 GradGradGradGradGradGradGradGradGradGradGradGradGradGradGradGradGradGrad

                          Input orientation:                          
 ---------------------------------------------------------------------
 Center     Atomic      Atomic             Coordinates (Angstroms)
 Number     Number       Type             X           Y           Z
 ---------------------------------------------------------------------
      1          6           0        0.000000    0.000000    0.758589
      2         17           0        0.000000    1.475851   -0.213979
      3         17           0        0.000000   -1.475851   -0.213979
      4          1           0        0.895032    0.000000    1.373860
      5          1           0       -0.895032    0.000000    1.373860
 ---------------------------------------------------------------------
                    Distance matrix (angstroms):
                    1          2          3          4          5
     1  C    0.000000
     2  Cl   1.767491   0.000000
     3  Cl   1.767491   2.951703   0.000000
     4  H    1.086113   2.345305   2.345305   0.000000
     5  H    1.086113   2.345305   2.345305   1.790063   0.000000
 Stoichiometry    CH2Cl2
 Framework group  C2V[C2(C),SGV(Cl2),SGV'(H2)]
 Deg. of freedom     4
 Full point group                 C2V     NOp   4
 Largest Abelian subgroup         C2V     NOp   4
 Largest concise Abelian subgroup C2V     NOp   4
                         Standard orientation:                         
 ---------------------------------------------------------------------
 Center     Atomic      Atomic             Coordinates (Angstroms)
 Number     Number       Type             X           Y           Z
 ---------------------------------------------------------------------
      1          6           0        0.000000   -0.000000    0.758018
      2         17           0        0.000000    1.475851   -0.214550
      3         17           0       -0.000000   -1.475851   -0.214550
      4          1           0        0.895032   -0.000000    1.373290
      5          1           0       -0.895032    0.000000    1.373290
 ---------------------------------------------------------------------
 Rotational constants (GHZ):     32.7891348      3.2827768      3.0420286
 Standard basis: 6-311++G(2df,2pd) (5D, 7F)
 There are    63 symmetry adapted cartesian basis functions of A1  symmetry.
 There are    21 symmetry adapted cartesian basis functions of A2  symmetry.
 There are    35 symmetry adapted cartesian basis functions of B1  symmetry.
 There are    46 symmetry adapted cartesian basis functions of B2  symmetry.
 There are    55 symmetry adapted basis functions of A1  symmetry.
 There are    20 symmetry adapted basis functions of A2  symmetry.
 There are    32 symmetry adapted basis functions of B1  symmetry.
 There are    41 symmetry adapted basis functions of B2  symmetry.
   148 basis functions,   226 primitive gaussians,   165 cartesian basis functions
    21 alpha electrons       21 beta electrons
       nuclear repulsion energy       134.3732944224 Hartrees.
 NAtoms=    5 NActive=    5 NUniq=    3 SFac= 2.78D+00 NAtFMM=   60 NAOKFM=F Big=F
 Integral buffers will be    131072 words long.
 Raffenetti 1 integral format.
 Two-electron integral symmetry is turned on.
 One-electron integrals computed using PRISM.
 PrsmSu:  requested number of processors reduced to:   4 ShMem   1 Linda.
 NBasis=   148 RedAO= T EigKep=  3.26D-04  NBF=    55    20    32    41
 NBsUse=   148 1.00D-06 EigRej= -1.00D+00 NBFU=    55    20    32    41
 ExpMin= 3.60D-02 ExpMax= 1.06D+05 ExpMxC= 3.62D+03 IAcc=3 IRadAn=         5 AccDes= 0.00D+00
 Harris functional with IExCor=  205 and IRadAn=       5 diagonalized for initial guess.
 HarFok:  IExCor=  205 AccDes= 0.00D+00 IRadAn=         5 IDoV= 1 UseB2=F ITyADJ=14
 ICtDFT=  3500011 ScaDFX=  1.000000  1.000000  1.000000  1.000000
 FoFCou: FMM=F IPFlag=           0 FMFlag=      100000 FMFlg1=           0
         NFxFlg=           0 DoJE=T BraDBF=F KetDBF=T FulRan=T
         wScrn=  0.000000 ICntrl=     500 IOpCl=  0 I1Cent=   200000004 NGrid=           0
         NMat0=    1 NMatS0=      1 NMatT0=    0 NMatD0=    1 NMtDS0=    0 NMtDT0=    0
 Petite list used in FoFCou.
 Initial guess orbital symmetries:
       Occupied  (B2) (A1) (A1) (B2) (A1) (A1) (B2) (A2) (B1) (A1)
                 (B2) (A1) (B2) (A1) (B1) (A1) (B2) (A1) (A2) (B1)
                 (B2)
       Virtual   (A1) (B2) (A1) (B1) (A1) (B2) (A1) (B2) (B1) (A2)
                 (A1) (A1) (B2) (B1) (B1) (A1) (B2) (A1) (A2) (A1)
                 (B2) (B1) (A1) (B2) (A1) (B1) (A2) (B2) (B1) (A1)
                 (A2) (A1) (B2) (B1) (A1) (B2) (A1) (B2) (B1) (A2)
                 (A1) (A1) (B1) (B1) (A1) (B2) (B2) (A1) (A2) (B2)
                 (A1) (B1) (A1) (B1) (B2) (A2) (A1) (B2) (B1) (A2)
                 (A1) (B2) (B2) (A2) (A1) (B1) (A1) (B2) (B1) (A1)
                 (A2) (A1) (B2) (B1) (A2) (B2) (A1) (A1) (A2) (B2)
                 (B1) (B1) (B2) (A1) (A1) (B2) (A2) (B1) (B1) (A1)
                 (A1) (B1) (A2) (B2) (B1) (A1) (B2) (A1) (A2) (B1)
                 (A1) (B2) (A1) (B1) (A2) (A1) (B2) (B2) (B2) (B1)
                 (A1) (A2) (A1) (B1) (A1) (B1) (A1) (B2) (A1) (B2)
                 (B1) (A2) (A1) (B2) (A1) (A1) (B2)
 The electronic state of the initial guess is 1-A1.
 Requested convergence on RMS density matrix=1.00D-08 within 128 cycles.
 Requested convergence on MAX density matrix=1.00D-06.
 Requested convergence on             energy=1.00D-06.
 No special actions if energy rises.
 Initial convergence to 1.0D-05 achieved.  Increase integral accuracy.
 SCF Done:  E(RHF) =  -958.062486228     A.U. after   12 cycles
            NFock= 12  Conv=0.53D-08     -V/T= 2.0000
 ExpMin= 3.60D-02 ExpMax= 1.06D+05 ExpMxC= 3.62D+03 IAcc=3 IRadAn=         5 AccDes= 0.00D+00
 HarFok:  IExCor=  205 AccDes= 0.00D+00 IRadAn=         5 IDoV=-2 UseB2=F ITyADJ=14
 ICtDFT= 12500011 ScaDFX=  1.000000  1.000000  1.000000  1.000000
 Range of M.O.s used for correlation:    12   148
 NBasis=   148 NAE=    21 NBE=    21 NFC=    11 NFV=     0
 NROrb=    137 NOA=    10 NOB=    10 NVA=   127 NVB=   127

 **** Warning!!: The largest alpha MO coefficient is  0.36076241D+02

 Fully direct method using O(ONN) memory.
 JobTyp=1 Pass  1:  I=  12 to  21 NPSUse=  1 ParTrn=F ParDer=F DoDerP=T.
 Spin components of T(2) and E(2):
     alpha-alpha T2 =       0.2538123178D-01 E2=     -0.6655003334D-01
     alpha-beta  T2 =       0.1411030647D+00 E2=     -0.4100627834D+00
     beta-beta   T2 =       0.2538123178D-01 E2=     -0.6655003334D-01
 ANorm=    0.1091725940D+01
 E2 =    -0.5431628501D+00 EUMP2 =    -0.95860564907824D+03
          IDoAtm=11111
          Differentiating once with respect to electric field.
                with respect to dipole field.
          Differentiating once with respect to nuclear coordinates.
          There are     1 degrees of freedom in the 1st order CPHF.  IDoFFX=0 NUNeed=     1.
 LinEq1:  Iter=  0 NonCon=     1 RMS=2.61D-03 Max=4.15D-02 NDo=     1
 AX will form     1 AO Fock derivatives at one time.
 LinEq1:  Iter=  1 NonCon=     1 RMS=9.87D-04 Max=1.81D-02 NDo=     1
 LinEq1:  Iter=  2 NonCon=     1 RMS=2.37D-04 Max=3.69D-03 NDo=     1
 LinEq1:  Iter=  3 NonCon=     1 RMS=6.83D-05 Max=9.23D-04 NDo=     1
 LinEq1:  Iter=  4 NonCon=     1 RMS=1.16D-05 Max=1.57D-04 NDo=     1
 LinEq1:  Iter=  5 NonCon=     1 RMS=2.17D-06 Max=2.91D-05 NDo=     1
 LinEq1:  Iter=  6 NonCon=     1 RMS=5.62D-07 Max=6.65D-06 NDo=     1
 LinEq1:  Iter=  7 NonCon=     1 RMS=8.21D-08 Max=8.26D-07 NDo=     1
 LinEq1:  Iter=  8 NonCon=     1 RMS=2.59D-08 Max=4.27D-07 NDo=     1
 LinEq1:  Iter=  9 NonCon=     1 RMS=5.53D-09 Max=9.24D-08 NDo=     1
 LinEq1:  Iter= 10 NonCon=     1 RMS=9.23D-10 Max=1.32D-08 NDo=     1
 LinEq1:  Iter= 11 NonCon=     1 RMS=1.45D-10 Max=2.51D-09 NDo=     1
 LinEq1:  Iter= 12 NonCon=     0 RMS=1.68D-11 Max=2.33D-10 NDo=     1
 Linear equations converged to 1.000D-10 1.000D-09 after    12 iterations.
 End of Minotr F.D. properties file   721 does not exist.
 End of Minotr F.D. properties file   722 does not exist.
 End of Minotr F.D. properties file   788 does not exist.

 **********************************************************************

            Population analysis using the SCF density.

 **********************************************************************

 Orbital symmetries:
       Occupied  (B2) (A1) (A1) (B2) (A1) (B2) (A1) (A1) (B2) (A2)
                 (B1) (A1) (B2) (A1) (B1) (A1) (B2) (A2) (A1) (B2)
                 (B1)
       Virtual   (A1) (B1) (A1) (B2) (A1) (A1) (B2) (B1) (A2) (A1)
                 (B2) (B1) (A1) (B2) (A1) (B1) (B2) (A1) (A1) (B2)
                 (B1) (A2) (A1) (B2) (B1) (A1) (A2) (A1) (B2) (B1)
                 (A1) (B1) (A2) (B2) (A1) (B2) (A1) (B1) (A2) (B2)
                 (A1) (B1) (A1) (B1) (B2) (A1) (B2) (A1) (A2) (B2)
                 (A1) (B1) (A1) (B1) (B2) (A2) (A1) (B2) (B1) (A2)
                 (A1) (B2) (B2) (A1) (A2) (B1) (A1) (B2) (B1) (A1)
                 (A2) (A1) (B2) (B1) (A1) (A2) (B2) (A1) (A2) (B1)
                 (B2) (B1) (B2) (A1) (A1) (B2) (A2) (B1) (B1) (A1)
                 (A1) (B1) (A2) (B2) (B1) (A1) (A1) (B2) (A2) (B1)
                 (A1) (B2) (A1) (B1) (A2) (A1) (B2) (B2) (B2) (B1)
                 (A1) (A2) (B1) (A1) (A1) (B1) (A1) (B2) (A1) (B2)
                 (B1) (A2) (A1) (B2) (A1) (A1) (B2)
 The electronic state is 1-A1.
 Alpha  occ. eigenvalues -- -104.84855-104.84855 -11.36460 -10.57437 -10.57436
 Alpha  occ. eigenvalues --   -8.04204  -8.04204  -8.04001  -8.04001  -8.03991
 Alpha  occ. eigenvalues --   -8.03991  -1.19384  -1.09809  -0.89619  -0.67649
 Alpha  occ. eigenvalues --   -0.61801  -0.58743  -0.47523  -0.47129  -0.44970
 Alpha  occ. eigenvalues --   -0.44624
 Alpha virt. eigenvalues --    0.04024   0.06344   0.08394   0.08707   0.13272
 Alpha virt. eigenvalues --    0.13593   0.13741   0.14475   0.14846   0.16886
 Alpha virt. eigenvalues --    0.17361   0.20248   0.20548   0.23392   0.24127
 Alpha virt. eigenvalues --    0.26271   0.26834   0.34094   0.50591   0.52356
 Alpha virt. eigenvalues --    0.53231   0.53841   0.56808   0.58822   0.59332
 Alpha virt. eigenvalues --    0.59431   0.60031   0.60129   0.60540   0.63993
 Alpha virt. eigenvalues --    0.68740   0.69397   0.69890   0.70002   0.75108
 Alpha virt. eigenvalues --    0.88074   0.88156   0.93534   0.95331   0.95817
 Alpha virt. eigenvalues --    0.98583   1.20473   1.21742   1.26214   1.30031
 Alpha virt. eigenvalues --    1.30278   1.31698   1.43428   1.47255   1.47283
 Alpha virt. eigenvalues --    1.49308   1.58198   1.70425   2.21583   2.27582
 Alpha virt. eigenvalues --    2.33549   2.35130   2.37794   2.38122   2.38733
 Alpha virt. eigenvalues --    2.38937   2.39143   2.44219   2.48499   2.48926
 Alpha virt. eigenvalues --    2.51769   2.53872   2.58829   2.61908   2.63314
 Alpha virt. eigenvalues --    2.67882   2.70907   2.71741   2.72717   2.75985
 Alpha virt. eigenvalues --    2.76250   2.77375   2.85766   2.87956   2.88685
 Alpha virt. eigenvalues --    2.89948   2.92889   2.96276   3.00396   3.13246
 Alpha virt. eigenvalues --    3.17014   3.27041   3.33185   3.40941   3.46662
 Alpha virt. eigenvalues --    3.55640   3.55741   3.68085   3.76481   3.79763
 Alpha virt. eigenvalues --    3.86417   3.91141   3.91179   4.03097   4.08331
 Alpha virt. eigenvalues --    4.09804   4.23426   4.30412   4.37511   4.41946
 Alpha virt. eigenvalues --    4.51121   4.53342   4.88134   5.10057   5.15181
 Alpha virt. eigenvalues --    5.19850   5.25110   5.38693   5.40031   5.87987
 Alpha virt. eigenvalues --    6.62574  10.46934  10.50407  25.83959  26.73773
 Alpha virt. eigenvalues --   26.79404  26.98067  27.00643  28.27208  28.54050
 Alpha virt. eigenvalues --  219.32683 219.35435
          Condensed to atoms (all electrons):
               1          2          3          4          5
     1  C    4.390839   0.266444   0.266444   0.440602   0.440602
     2  Cl   0.266444  16.939321  -0.063329  -0.030684  -0.030684
     3  Cl   0.266444  -0.063329  16.939321  -0.030684  -0.030684
     4  H    0.440602  -0.030684  -0.030684   0.694572  -0.057342
     5  H    0.440602  -0.030684  -0.030684  -0.057342   0.694572
 Mulliken charges:
               1
     1  C    0.195069
     2  Cl  -0.081069
     3  Cl  -0.081069
     4  H   -0.016466
     5  H   -0.016466
 Sum of Mulliken charges =  -0.00000
 Mulliken charges with hydrogens summed into heavy atoms:
               1
     1  C    0.162138
     2  Cl  -0.081069
     3  Cl  -0.081069
 Electronic spatial extent (au):  <R**2>=            373.0571
 Charge=              0.0000 electrons
 Dipole moment (field-independent basis, Debye):
    X=              0.0000    Y=             -0.0000    Z=              1.8347  Tot=              1.8347
 Quadrupole moment (field-independent basis, Debye-Ang):
   XX=            -31.6748   YY=            -34.4961   ZZ=            -30.0052
   XY=             -0.0000   XZ=              0.0000   YZ=              0.0000
 Traceless Quadrupole moment (field-independent basis, Debye-Ang):
   XX=              0.3839   YY=             -2.4374   ZZ=              2.0535
   XY=             -0.0000   XZ=              0.0000   YZ=              0.0000
 Octapole moment (field-independent basis, Debye-Ang**2):
  XXX=              0.0000  YYY=              0.0000  ZZZ=              2.0704  XYY=              0.0000
  XXY=              0.0000  XXZ=              2.0853  XZZ=              0.0000  YZZ=             -0.0000
  YYZ=             -4.5592  XYZ=             -0.0000
 Hexadecapole moment (field-independent basis, Debye-Ang**3):
 XXXX=            -41.8189 YYYY=           -359.0770 ZZZZ=            -72.3912 XXXY=             -0.0000
 XXXZ=             -0.0000 YYYX=             -0.0000 YYYZ=             -0.0000 ZZZX=             -0.0000
 ZZZY=              0.0000 XXYY=            -71.9492 XXZZ=            -17.2236 YYZZ=            -71.6758
 XXYZ=             -0.0000 YYXZ=             -0.0000 ZZXY=             -0.0000
 N-N= 1.343732944224D+02 E-N=-2.548168574209D+03  KE= 9.580307438784D+02
 Symmetry A1   KE= 4.490074445558D+02
 Symmetry A2   KE= 4.587970140433D+01
 Symmetry B1   KE= 4.786220572668D+01
 Symmetry B2   KE= 4.152813921915D+02
 PrsmSu:  requested number of processors reduced to:   4 ShMem   1 Linda.
 Calling FoFJK, ICntrl=  10002127 FMM=F ISym2X=1 I1Cent= 0 IOpClX= 0 NMat=1 NMatS=1 NMatT=0.
 ***** Axes restored to original set *****
 -------------------------------------------------------------------
 Center     Atomic                   Forces (Hartrees/Bohr)
 Number     Number              X              Y              Z
 -------------------------------------------------------------------
      1        6          -0.000000000    0.000000000    0.004101994
      2       17          -0.000000000   -0.001456481   -0.000206095
      3       17           0.000000000    0.001456481   -0.000206095
      4        1          -0.001958253   -0.000000000   -0.001844902
      5        1           0.001958253    0.000000000   -0.001844902
 -------------------------------------------------------------------
 Cartesian Forces:  Max     0.004101994 RMS     0.001541229

 GradGradGradGradGradGradGradGradGradGradGradGradGradGradGradGradGradGrad
 Berny optimization.
 FormGI is forming the generalized inverse of G from B-inverse, IUseBI=4.
 Internal  Forces:  Max     0.002658853 RMS     0.001192974
 Search for a local minimum.
 Step number   1 out of a maximum of   24
 All quantities printed in internal units (Hartrees-Bohrs-Radians)
 Mixed Optimization -- RFO/linear search
 Second derivative matrix not updated -- first step.
 The second derivative matrix:
                          R1        R2        R3        R4        A1
           R1           0.28855
           R2           0.00000   0.28855
           R3           0.00000   0.00000   0.35266
           R4           0.00000   0.00000   0.00000   0.35266
           A1           0.00000   0.00000   0.00000   0.00000   0.25000
           A2           0.00000   0.00000   0.00000   0.00000   0.00000
           A3           0.00000   0.00000   0.00000   0.00000   0.00000
           A4           0.00000   0.00000   0.00000   0.00000   0.00000
           A5           0.00000   0.00000   0.00000   0.00000   0.00000
           A6           0.00000   0.00000   0.00000   0.00000   0.00000
           D1           0.00000   0.00000   0.00000   0.00000   0.00000
           D2           0.00000   0.00000   0.00000   0.00000   0.00000
           D3           0.00000   0.00000   0.00000   0.00000   0.00000
           D4           0.00000   0.00000   0.00000   0.00000   0.00000
                          A2        A3        A4        A5        A6
           A2           0.16000
           A3           0.00000   0.16000
           A4           0.00000   0.00000   0.16000
           A5           0.00000   0.00000   0.00000   0.16000
           A6           0.00000   0.00000   0.00000   0.00000   0.16000
           D1           0.00000   0.00000   0.00000   0.00000   0.00000
           D2           0.00000   0.00000   0.00000   0.00000   0.00000
           D3           0.00000   0.00000   0.00000   0.00000   0.00000
           D4           0.00000   0.00000   0.00000   0.00000   0.00000
                          D1        D2        D3        D4
           D1           0.00286
           D2           0.00000   0.00286
           D3           0.00000   0.00000   0.00286
           D4           0.00000   0.00000   0.00000   0.00286
 ITU=  0
     Eigenvalues ---    0.05774   0.07003   0.09084   0.16000   0.16748
     Eigenvalues ---    0.28855   0.28855   0.35266   0.35266
 RFO step:  Lambda=-9.22167896D-05 EMin= 5.77416575D-02
 Linear search not attempted -- first point.
 Iteration  1 RMS(Cart)=  0.00621200 RMS(Int)=  0.00002981
 Iteration  2 RMS(Cart)=  0.00002452 RMS(Int)=  0.00001114
 Iteration  3 RMS(Cart)=  0.00000000 RMS(Int)=  0.00001114
 ClnCor:  largest displacement from symmetrization is 1.01D-04 for atom     5.
 Variable       Old X    -DE/DX   Delta X   Delta X   Delta X     New X
                                 (Linear)    (Quad)   (Total)
    R1        3.34007  -0.00110   0.00000  -0.00382  -0.00382   3.33625
    R2        3.34007  -0.00110   0.00000  -0.00382  -0.00382   3.33625
    R3        2.05246  -0.00266   0.00000  -0.00754  -0.00758   2.04488
    R4        2.05246  -0.00266   0.00000  -0.00754  -0.00758   2.04488
    A1        1.97626  -0.00095   0.00000  -0.01177  -0.01177   1.96449
    A2        1.88779   0.00008   0.00000   0.00136   0.00137   1.88916
    A3        1.88779   0.00024   0.00000   0.00143   0.00137   1.88916
    A4        1.88779   0.00008   0.00000   0.00136   0.00137   1.88916
    A5        1.88779   0.00024   0.00000   0.00143   0.00137   1.88916
    A6        1.93711   0.00032   0.00000   0.00643   0.00644   1.94356
    D1       -2.14661   0.00105   0.00000   0.01264   0.01262  -2.13399
    D2        2.14661  -0.00087   0.00000  -0.01256  -0.01262   2.13399
    D3       -2.06829  -0.00043   0.00000  -0.00628  -0.00631  -2.07460
    D4        2.06829   0.00043   0.00000   0.00628   0.00631   2.07460
         Item               Value     Threshold  Converged?
 Maximum Force            0.002659     0.000450     NO 
 RMS     Force            0.001193     0.000300     NO 
 Maximum Displacement     0.014042     0.001800     NO 
 RMS     Displacement     0.006226     0.001200     NO 
 Predicted change in Energy=-4.618655D-05
 GradGradGradGradGradGradGradGradGradGradGradGradGradGradGradGradGradGrad

                          Input orientation:                          
 ---------------------------------------------------------------------
 Center     Atomic      Atomic             Coordinates (Angstroms)
 Number     Number       Type             X           Y           Z
 ---------------------------------------------------------------------
      1          6           0        0.000000    0.000000    0.763655
      2         17           0        0.000000    1.468421   -0.216458
      3         17           0       -0.000000   -1.468421   -0.216458
      4          1           0        0.893698   -0.000000    1.373780
      5          1           0       -0.893698    0.000000    1.373780
 ---------------------------------------------------------------------
                    Distance matrix (angstroms):
                    1          2          3          4          5
     1  C    0.000000
     2  Cl   1.765470   0.000000
     3  Cl   1.765470   2.936842   0.000000
     4  H    1.082104   2.341755   2.341755   0.000000
     5  H    1.082104   2.341755   2.341755   1.787397   0.000000
 Stoichiometry    CH2Cl2
 Framework group  C2V[C2(C),SGV(Cl2),SGV'(H2)]
 Deg. of freedom     4
 Full point group                 C2V     NOp   4
 Largest Abelian subgroup         C2V     NOp   4
 Largest concise Abelian subgroup C2V     NOp   4
                         Standard orientation:                         
 ---------------------------------------------------------------------
 Center     Atomic      Atomic             Coordinates (Angstroms)
 Number     Number       Type             X           Y           Z
 ---------------------------------------------------------------------
      1          6           0        0.000000    0.000000    0.764372
      2         17           0        0.000000    1.468421   -0.215742
      3         17           0       -0.000000   -1.468421   -0.215742
      4          1           0        0.893698   -0.000000    1.374497
      5          1           0       -0.893698    0.000000    1.374497
 ---------------------------------------------------------------------
 Rotational constants (GHZ):     32.4658568      3.3158357      3.0673562
 Standard basis: 6-311++G(2df,2pd) (5D, 7F)
 There are    63 symmetry adapted cartesian basis functions of A1  symmetry.
 There are    21 symmetry adapted cartesian basis functions of A2  symmetry.
 There are    35 symmetry adapted cartesian basis functions of B1  symmetry.
 There are    46 symmetry adapted cartesian basis functions of B2  symmetry.
 There are    55 symmetry adapted basis functions of A1  symmetry.
 There are    20 symmetry adapted basis functions of A2  symmetry.
 There are    32 symmetry adapted basis functions of B1  symmetry.
 There are    41 symmetry adapted basis functions of B2  symmetry.
   148 basis functions,   226 primitive gaussians,   165 cartesian basis functions
    21 alpha electrons       21 beta electrons
       nuclear repulsion energy       134.7507745119 Hartrees.
 NAtoms=    5 NActive=    5 NUniq=    3 SFac= 2.78D+00 NAtFMM=   60 NAOKFM=F Big=F
 Integral buffers will be    131072 words long.
 Raffenetti 1 integral format.
 Two-electron integral symmetry is turned on.
 One-electron integrals computed using PRISM.
 PrsmSu:  requested number of processors reduced to:   4 ShMem   1 Linda.
 NBasis=   148 RedAO= T EigKep=  3.23D-04  NBF=    55    20    32    41
 NBsUse=   148 1.00D-06 EigRej= -1.00D+00 NBFU=    55    20    32    41
 Initial guess from the checkpoint file:  "/scratch-local/aubhfc.CH2Cl2C2vcomG09.68332/Gau-33902.chk"
 B after Tr=     0.000000   -0.000000   -0.000000
         Rot=    1.000000   -0.000000    0.000000   -0.000000 Ang=   0.00 deg.
 Initial guess orbital symmetries:
       Occupied  (B2) (A1) (A1) (B2) (A1) (B2) (A1) (A1) (B2) (A2)
                 (B1) (A1) (B2) (A1) (B1) (A1) (B2) (A2) (A1) (B2)
                 (B1)
       Virtual   (A1) (A1) (A1) (A1) (A1) (A1) (A1) (A1) (A1) (A1)
                 (A1) (A1) (A1) (A1) (A1) (A1) (A1) (A1) (A1) (A1)
                 (A1) (A1) (A1) (A1) (A1) (A1) (A1) (A1) (A1) (A1)
                 (A1) (A1) (A1) (A1) (A1) (A1) (A1) (A1) (A1) (A1)
                 (A1) (A1) (A1) (A1) (A1) (A1) (A2) (A2) (A2) (A2)
                 (A2) (A2) (A2) (A2) (A2) (A2) (A2) (A2) (A2) (A2)
                 (A2) (A2) (A2) (A2) (B1) (B1) (B1) (B1) (B1) (B1)
                 (B1) (B1) (B1) (B1) (B1) (B1) (B1) (B1) (B1) (B1)
                 (B1) (B1) (B1) (B1) (B1) (B1) (B1) (B1) (B1) (B1)
                 (B1) (B1) (B1) (B2) (B2) (B2) (B2) (B2) (B2) (B2)
                 (B2) (B2) (B2) (B2) (B2) (B2) (B2) (B2) (B2) (B2)
                 (B2) (B2) (B2) (B2) (B2) (B2) (B2) (B2) (B2) (B2)
                 (B2) (B2) (B2) (B2) (B2) (B2) (B2)
 Requested convergence on RMS density matrix=1.00D-08 within 128 cycles.
 Requested convergence on MAX density matrix=1.00D-06.
 Requested convergence on             energy=1.00D-06.
 No special actions if energy rises.
 SCF Done:  E(RHF) =  -958.062645483     A.U. after    9 cycles
            NFock=  9  Conv=0.45D-08     -V/T= 2.0000
 ExpMin= 3.60D-02 ExpMax= 1.06D+05 ExpMxC= 3.62D+03 IAcc=3 IRadAn=         5 AccDes= 0.00D+00
 HarFok:  IExCor=  205 AccDes= 0.00D+00 IRadAn=         5 IDoV=-2 UseB2=F ITyADJ=14
 ICtDFT= 12500011 ScaDFX=  1.000000  1.000000  1.000000  1.000000
 Range of M.O.s used for correlation:    12   148
 NBasis=   148 NAE=    21 NBE=    21 NFC=    11 NFV=     0
 NROrb=    137 NOA=    10 NOB=    10 NVA=   127 NVB=   127

 **** Warning!!: The largest alpha MO coefficient is  0.36078241D+02

 Fully direct method using O(ONN) memory.
 JobTyp=1 Pass  1:  I=  12 to  21 NPSUse=  1 ParTrn=F ParDer=F DoDerP=T.
 Spin components of T(2) and E(2):
     alpha-alpha T2 =       0.2535731896D-01 E2=     -0.6655611036D-01
     alpha-beta  T2 =       0.1408722394D+00 E2=     -0.4099357841D+00
     beta-beta   T2 =       0.2535731896D-01 E2=     -0.6655611036D-01
 ANorm=    0.1091598313D+01
 E2 =    -0.5430480048D+00 EUMP2 =    -0.95860569348762D+03
          IDoAtm=11111
          Differentiating once with respect to electric field.
                with respect to dipole field.
          Differentiating once with respect to nuclear coordinates.
          There are     1 degrees of freedom in the 1st order CPHF.  IDoFFX=0 NUNeed=     1.
 LinEq1:  Iter=  0 NonCon=     1 RMS=2.60D-03 Max=4.14D-02 NDo=     1
 AX will form     1 AO Fock derivatives at one time.
 LinEq1:  Iter=  1 NonCon=     1 RMS=9.81D-04 Max=1.79D-02 NDo=     1
 LinEq1:  Iter=  2 NonCon=     1 RMS=2.36D-04 Max=3.65D-03 NDo=     1
 LinEq1:  Iter=  3 NonCon=     1 RMS=6.77D-05 Max=9.15D-04 NDo=     1
 LinEq1:  Iter=  4 NonCon=     1 RMS=1.15D-05 Max=1.56D-04 NDo=     1
 LinEq1:  Iter=  5 NonCon=     1 RMS=2.13D-06 Max=2.86D-05 NDo=     1
 LinEq1:  Iter=  6 NonCon=     1 RMS=5.53D-07 Max=6.54D-06 NDo=     1
 LinEq1:  Iter=  7 NonCon=     1 RMS=8.04D-08 Max=8.31D-07 NDo=     1
 LinEq1:  Iter=  8 NonCon=     1 RMS=2.48D-08 Max=4.05D-07 NDo=     1
 LinEq1:  Iter=  9 NonCon=     1 RMS=5.04D-09 Max=8.58D-08 NDo=     1
 LinEq1:  Iter= 10 NonCon=     1 RMS=8.87D-10 Max=1.34D-08 NDo=     1
 LinEq1:  Iter= 11 NonCon=     1 RMS=1.41D-10 Max=2.43D-09 NDo=     1
 LinEq1:  Iter= 12 NonCon=     0 RMS=1.65D-11 Max=2.38D-10 NDo=     1
 Linear equations converged to 1.000D-10 1.000D-09 after    12 iterations.
 End of Minotr F.D. properties file   721 does not exist.
 End of Minotr F.D. properties file   722 does not exist.
 End of Minotr F.D. properties file   788 does not exist.
 PrsmSu:  requested number of processors reduced to:   4 ShMem   1 Linda.
 Calling FoFJK, ICntrl=  10002127 FMM=F ISym2X=1 I1Cent= 0 IOpClX= 0 NMat=1 NMatS=1 NMatT=0.
 ***** Axes restored to original set *****
 -------------------------------------------------------------------
 Center     Atomic                   Forces (Hartrees/Bohr)
 Number     Number              X              Y              Z
 -------------------------------------------------------------------
      1        6          -0.000000000    0.000000000    0.000377156
      2       17           0.000000000    0.000319792   -0.000161244
      3       17           0.000000000   -0.000319792   -0.000161244
      4        1           0.000028254    0.000000000   -0.000027334
      5        1          -0.000028254   -0.000000000   -0.000027334
 -------------------------------------------------------------------
 Cartesian Forces:  Max     0.000377156 RMS     0.000163681

 GradGradGradGradGradGradGradGradGradGradGradGradGradGradGradGradGradGrad
 Berny optimization.
 Using GEDIIS/GDIIS optimizer.
 FormGI is forming the generalized inverse of G from B-inverse, IUseBI=4.
 Internal  Forces:  Max     0.000355501 RMS     0.000137839
 Search for a local minimum.
 Step number   2 out of a maximum of   24
 All quantities printed in internal units (Hartrees-Bohrs-Radians)
 Mixed Optimization -- En-DIIS/RFO-DIIS
 Update second derivatives using D2CorX and points    1    2
 DE= -4.44D-05 DEPred=-4.62D-05 R= 9.62D-01
 TightC=F SS=  1.41D+00  RLast= 2.70D-02 DXNew= 5.0454D-01 8.1033D-02
 Trust test= 9.62D-01 RLast= 2.70D-02 DXMaxT set to 3.00D-01
 The second derivative matrix:
                          R1        R2        R3        R4        A1
           R1           0.29745
           R2           0.00891   0.29745
           R3           0.00847   0.00847   0.34922
           R4           0.00847   0.00847  -0.00344   0.34922
           A1          -0.01993  -0.01993  -0.05730  -0.05730   0.16681
           A2           0.00092   0.00092   0.00324   0.00324   0.00582
           A3          -0.00143  -0.00143  -0.00106  -0.00106   0.00420
           A4           0.00092   0.00092   0.00324   0.00324   0.00582
           A5          -0.00143  -0.00143  -0.00106  -0.00106   0.00420
           A6           0.00852   0.00852   0.02288   0.02288   0.03020
           D1          -0.01589  -0.01589  -0.02880  -0.02880  -0.01006
           D2           0.01305   0.01305   0.02360   0.02360   0.00810
           D3           0.00652   0.00652   0.01180   0.01180   0.00405
           D4          -0.00652  -0.00652  -0.01180  -0.01180  -0.00405
                          A2        A3        A4        A5        A6
           A2           0.15961
           A3          -0.00021   0.16022
           A4          -0.00039  -0.00021   0.15961
           A5          -0.00021   0.00022  -0.00021   0.16022
           A6          -0.00216  -0.00175  -0.00216  -0.00175   0.14916
           D1           0.00117   0.00291   0.00117   0.00291   0.00239
           D2          -0.00095  -0.00239  -0.00095  -0.00239  -0.00190
           D3          -0.00047  -0.00119  -0.00047  -0.00119  -0.00095
           D4           0.00047   0.00119   0.00047   0.00119   0.00095
                          D1        D2        D3        D4
           D1           0.01493
           D2          -0.00997   0.01109
           D3          -0.00498   0.00411   0.00492
           D4           0.00498  -0.00411  -0.00206   0.00492
 ITU=  1  0
 Use linear search instead of GDIIS.
     Eigenvalues ---    0.05709   0.06981   0.09149   0.16000   0.16823
     Eigenvalues ---    0.28855   0.30048   0.35222   0.35266
 RFO step:  Lambda=-7.26849930D-07 EMin= 5.70873039D-02
 Quartic linear search produced a step of -0.04132.
 Iteration  1 RMS(Cart)=  0.00048593 RMS(Int)=  0.00000047
 Iteration  2 RMS(Cart)=  0.00000006 RMS(Int)=  0.00000047
 ClnCor:  largest displacement from symmetrization is 2.26D-08 for atom     5.
 Variable       Old X    -DE/DX   Delta X   Delta X   Delta X     New X
                                 (Linear)    (Quad)   (Total)
    R1        3.33625   0.00036   0.00016   0.00099   0.00115   3.33740
    R2        3.33625   0.00036   0.00016   0.00099   0.00115   3.33740
    R3        2.04488   0.00001   0.00031  -0.00035  -0.00004   2.04484
    R4        2.04488   0.00001   0.00031  -0.00035  -0.00004   2.04484
    A1        1.96449   0.00005   0.00049  -0.00016   0.00033   1.96482
    A2        1.88916  -0.00003  -0.00006  -0.00011  -0.00017   1.88900
    A3        1.88916  -0.00003  -0.00006  -0.00011  -0.00017   1.88900
    A4        1.88916  -0.00003  -0.00006  -0.00011  -0.00017   1.88900
    A5        1.88916  -0.00003  -0.00006  -0.00011  -0.00017   1.88900
    A6        1.94356   0.00007  -0.00027   0.00063   0.00036   1.94392
    D1       -2.13399  -0.00003  -0.00052   0.00033  -0.00020  -2.13419
    D2        2.13399   0.00003   0.00052  -0.00033   0.00020   2.13419
    D3       -2.07460   0.00001   0.00026  -0.00016   0.00010  -2.07450
    D4        2.07460  -0.00001  -0.00026   0.00016  -0.00010   2.07450
         Item               Value     Threshold  Converged?
 Maximum Force            0.000356     0.000450     YES
 RMS     Force            0.000138     0.000300     YES
 Maximum Displacement     0.001259     0.001800     YES
 RMS     Displacement     0.000486     0.001200     YES
 Predicted change in Energy=-4.468844D-07
 Optimization completed.
    -- Stationary point found.
                           ----------------------------
                           !   Optimized Parameters   !
                           ! (Angstroms and Degrees)  !
 --------------------------                            --------------------------
 ! Name  Definition              Value          Derivative Info.                !
 --------------------------------------------------------------------------------
 ! R1    R(1,2)                  1.7655         -DE/DX =    0.0004              !
 ! R2    R(1,3)                  1.7655         -DE/DX =    0.0004              !
 ! R3    R(1,4)                  1.0821         -DE/DX =    0.0                 !
 ! R4    R(1,5)                  1.0821         -DE/DX =    0.0                 !
 ! A1    A(2,1,3)              112.5569         -DE/DX =    0.0001              !
 ! A2    A(2,1,4)              108.2411         -DE/DX =    0.0                 !
 ! A3    A(2,1,5)              108.2411         -DE/DX =    0.0                 !
 ! A4    A(3,1,4)              108.2411         -DE/DX =    0.0                 !
 ! A5    A(3,1,5)              108.2411         -DE/DX =    0.0                 !
 ! A6    A(4,1,5)              111.3576         -DE/DX =    0.0001              !
 ! D1    D(2,1,4,3)           -122.2686         -DE/DX =    0.0                 !
 ! D2    D(2,1,5,3)            122.2686         -DE/DX =    0.0                 !
 ! D3    D(2,1,5,4)           -118.8657         -DE/DX =    0.0                 !
 ! D4    D(3,1,5,4)            118.8657         -DE/DX =    0.0                 !
 --------------------------------------------------------------------------------
 GradGradGradGradGradGradGradGradGradGradGradGradGradGradGradGradGradGrad

                          Input orientation:                          
 ---------------------------------------------------------------------
 Center     Atomic      Atomic             Coordinates (Angstroms)
 Number     Number       Type             X           Y           Z
 ---------------------------------------------------------------------
      1          6           0       -0.000000   -0.000000    0.763655
      2         17           0        0.000000    1.468421   -0.216458
      3         17           0       -0.000000   -1.468421   -0.216458
      4          1           0        0.893698   -0.000000    1.373780
      5          1           0       -0.893698    0.000000    1.373780
 ---------------------------------------------------------------------
                    Distance matrix (angstroms):
                    1          2          3          4          5
     1  C    0.000000
     2  Cl   1.765470   0.000000
     3  Cl   1.765470   2.936842   0.000000
     4  H    1.082104   2.341755   2.341755   0.000000
     5  H    1.082104   2.341755   2.341755   1.787397   0.000000
 Stoichiometry    CH2Cl2
 Framework group  C2V[C2(C),SGV(Cl2),SGV'(H2)]
 Deg. of freedom     4
 Full point group                 C2V     NOp   4
 Largest Abelian subgroup         C2V     NOp   4
 Largest concise Abelian subgroup C2V     NOp   4
                         Standard orientation:                         
 ---------------------------------------------------------------------
 Center     Atomic      Atomic             Coordinates (Angstroms)
 Number     Number       Type             X           Y           Z
 ---------------------------------------------------------------------
      1          6           0       -0.000000    0.000000    0.764372
      2         17           0        0.000000    1.468421   -0.215742
      3         17           0       -0.000000   -1.468421   -0.215742
      4          1           0        0.893698   -0.000000    1.374497
      5          1           0       -0.893698    0.000000    1.374497
 ---------------------------------------------------------------------
 Rotational constants (GHZ):     32.4658568      3.3158357      3.0673562

 **********************************************************************

            Population analysis using the SCF density.

 **********************************************************************

 Orbital symmetries:
       Occupied  (B2) (A1) (A1) (B2) (A1) (B2) (A1) (A1) (B2) (A2)
                 (B1) (A1) (B2) (A1) (B1) (A1) (B2) (A2) (A1) (B2)
                 (B1)
       Virtual   (A1) (B1) (A1) (B2) (A1) (A1) (B2) (B1) (A2) (A1)
                 (B2) (B1) (A1) (B2) (A1) (B1) (B2) (A1) (A1) (B2)
                 (B1) (A2) (A1) (B2) (B1) (A1) (A2) (A1) (B2) (B1)
                 (A1) (B1) (A2) (B2) (A1) (A1) (B2) (B1) (A2) (B2)
                 (A1) (B1) (A1) (B1) (B2) (A1) (B2) (A1) (B2) (A2)
                 (A1) (B1) (A1) (B1) (B2) (A2) (A1) (B2) (B1) (A2)
                 (A1) (B2) (B2) (A1) (A2) (B1) (A1) (B2) (B1) (A1)
                 (A2) (A1) (B2) (B1) (A1) (A2) (B2) (A1) (A2) (B1)
                 (B2) (B1) (B2) (A1) (A1) (B2) (A2) (B1) (B1) (A1)
                 (A1) (B1) (A2) (B2) (B1) (A1) (B2) (A1) (A2) (B1)
                 (A1) (B2) (A1) (B1) (A2) (A1) (B2) (B2) (B2) (B1)
                 (A1) (A2) (B1) (A1) (A1) (B1) (A1) (B2) (A1) (B2)
                 (B1) (A2) (A1) (B2) (A1) (A1) (B2)
 The electronic state is 1-A1.
 Alpha  occ. eigenvalues -- -104.84811-104.84811 -11.36353 -10.57401 -10.57400
 Alpha  occ. eigenvalues --   -8.04168  -8.04168  -8.03965  -8.03965  -8.03955
 Alpha  occ. eigenvalues --   -8.03955  -1.19510  -1.09775  -0.89706  -0.67857
 Alpha  occ. eigenvalues --   -0.61899  -0.58732  -0.47484  -0.47190  -0.44864
 Alpha  occ. eigenvalues --   -0.44663
 Alpha virt. eigenvalues --    0.04021   0.06330   0.08409   0.08709   0.13288
 Alpha virt. eigenvalues --    0.13587   0.13737   0.14477   0.14855   0.16904
 Alpha virt. eigenvalues --    0.17356   0.20261   0.20576   0.23409   0.24261
 Alpha virt. eigenvalues --    0.26392   0.26809   0.34122   0.50655   0.52337
 Alpha virt. eigenvalues --    0.53245   0.53868   0.56712   0.58745   0.59356
 Alpha virt. eigenvalues --    0.59454   0.60023   0.60161   0.60618   0.63978
 Alpha virt. eigenvalues --    0.68702   0.69430   0.70073   0.70097   0.75243
 Alpha virt. eigenvalues --    0.88165   0.88349   0.93668   0.95360   0.95750
 Alpha virt. eigenvalues --    0.98752   1.20694   1.22094   1.26338   1.29879
 Alpha virt. eigenvalues --    1.30216   1.31793   1.43390   1.47318   1.47448
 Alpha virt. eigenvalues --    1.49556   1.58356   1.70784   2.21517   2.27693
 Alpha virt. eigenvalues --    2.33604   2.34848   2.37758   2.38103   2.38783
 Alpha virt. eigenvalues --    2.38902   2.39191   2.44324   2.48557   2.48927
 Alpha virt. eigenvalues --    2.51856   2.54132   2.58913   2.62031   2.63354
 Alpha virt. eigenvalues --    2.67928   2.70818   2.71836   2.72703   2.76149
 Alpha virt. eigenvalues --    2.76444   2.77454   2.85779   2.88040   2.88719
 Alpha virt. eigenvalues --    2.90268   2.93093   2.96521   3.00098   3.13289
 Alpha virt. eigenvalues --    3.17483   3.27182   3.33703   3.41120   3.47379
 Alpha virt. eigenvalues --    3.55792   3.56363   3.67932   3.76406   3.79644
 Alpha virt. eigenvalues --    3.86741   3.91077   3.92473   4.02813   4.08733
 Alpha virt. eigenvalues --    4.09731   4.24061   4.30973   4.37608   4.42846
 Alpha virt. eigenvalues --    4.51236   4.53351   4.88284   5.11366   5.16617
 Alpha virt. eigenvalues --    5.20758   5.26361   5.40358   5.40936   5.89539
 Alpha virt. eigenvalues --    6.63219  10.46936  10.50655  25.85113  26.73878
 Alpha virt. eigenvalues --   26.79872  26.98092  27.01221  28.27339  28.54510
 Alpha virt. eigenvalues --  219.32663 219.35684
          Condensed to atoms (all electrons):
               1          2          3          4          5
     1  C    4.392077   0.264056   0.264056   0.440328   0.440328
     2  Cl   0.264056  16.944678  -0.066159  -0.030087  -0.030087
     3  Cl   0.264056  -0.066159  16.944678  -0.030087  -0.030087
     4  H    0.440328  -0.030087  -0.030087   0.694593  -0.057573
     5  H    0.440328  -0.030087  -0.030087  -0.057573   0.694593
 Mulliken charges:
               1
     1  C    0.199153
     2  Cl  -0.082402
     3  Cl  -0.082402
     4  H   -0.017175
     5  H   -0.017175
 Sum of Mulliken charges =  -0.00000
 Mulliken charges with hydrogens summed into heavy atoms:
               1
     1  C    0.164803
     2  Cl  -0.082402
     3  Cl  -0.082402
 Electronic spatial extent (au):  <R**2>=            370.6475
 Charge=             -0.0000 electrons
 Dipole moment (field-independent basis, Debye):
    X=              0.0000    Y=              0.0000    Z=              1.8431  Tot=              1.8431
 Quadrupole moment (field-independent basis, Debye-Ang):
   XX=            -31.6593   YY=            -34.5154   ZZ=            -29.9617
   XY=             -0.0000   XZ=             -0.0000   YZ=              0.0000
 Traceless Quadrupole moment (field-independent basis, Debye-Ang):
   XX=              0.3861   YY=             -2.4699   ZZ=              2.0838
   XY=             -0.0000   XZ=             -0.0000   YZ=              0.0000
 Octapole moment (field-independent basis, Debye-Ang**2):
  XXX=              0.0000  YYY=             -0.0000  ZZZ=              2.0738  XYY=              0.0000
  XXY=             -0.0000  XXZ=              2.0952  XZZ=              0.0000  YZZ=             -0.0000
  YYZ=             -4.5636  XYZ=             -0.0000
 Hexadecapole moment (field-independent basis, Debye-Ang**3):
 XXXX=            -41.7469 YYYY=           -356.4237 ZZZZ=            -72.6427 XXXY=             -0.0000
 XXXZ=             -0.0000 YYYX=             -0.0000 YYYZ=              0.0000 ZZZX=              0.0000
 ZZZY=             -0.0000 XXYY=            -71.3673 XXZZ=            -17.2644 YYZZ=            -71.0829
 XXYZ=              0.0000 YYXZ=              0.0000 ZZXY=             -0.0000
 N-N= 1.347507745119D+02 E-N=-2.548947203601D+03  KE= 9.580530037333D+02
 Symmetry A1   KE= 4.490101900459D+02
 Symmetry A2   KE= 4.588187571854D+01
 Symmetry B1   KE= 4.786506628204D+01
 Symmetry B2   KE= 4.152958716868D+02
 1\1\GINC-DMC2\FOpt\RMP2-FC\6-311++G(2df,2pd)\C1H2Cl2\AUBHFC\31-Jan-201
 7\0\\#mp2/6-311++g(2df,2pd) opt freq\\CH2Cl2_C2v\\0,1\C,0.,0.,0.763655
 4632\Cl,0.,1.4684208932,-0.2164581914\Cl,0.,-1.4684208932,-0.216458191
 4\H,0.8936982962,0.,1.3737803346\H,-0.8936982962,0.,1.3737803346\\Vers
 ion=ES64L-G09RevE.01\State=1-A1\HF=-958.0626455\MP2=-958.6056935\RMSD=
 4.481e-09\RMSF=1.637e-04\Dipole=0.,0.,0.6453384\PG=C02V [C2(C1),SGV(Cl
 2),SGV'(H2)]\\@


 LENDING MONEY TO FRIENDS CAUSES THEM TO LOSE THEIR MEMORIES.

    --  PETER'S THEORY OF RECIPROCAL INHIBITION OF FISCAL RECALL
 Job cpu time:       0 days  0 hours  5 minutes 36.5 seconds.
 File lengths (MBytes):  RWF=     16 Int=      0 D2E=      0 Chk=      3 Scr=      1
 Normal termination of Gaussian 09 at Tue Jan 31 21:13:00 2017.
 Link1:  Proceeding to internal job step number  2.
 ----------------------------------------------------------------------
 #N Geom=AllCheck Guess=TCheck SCRF=Check GenChk RMP2(FC)/6-311++G(2df,
 2pd) Freq
 ----------------------------------------------------------------------
 1/10=4,29=7,30=1,38=1,40=1/1,3;
 2/12=2,40=1/2;
 3/5=4,6=6,7=1414,11=1,14=-4,16=1,25=1,30=1,70=2,71=2,116=1,140=1/1,2,3;
 4/5=101/1;
 5/5=2,38=6,98=1/2;
 8/6=3,8=1,10=2,19=11,30=-1/1;
 9/15=3,16=-3/6;
 11/6=1,8=1,15=11,17=12,24=-1,27=1,28=-2,29=300,32=6,42=3/1,2,10;
 10/6=2,21=1/2;
 8/6=4,8=1,10=2,19=11,30=-1/11,4;
 10/5=1,20=4/2;
 11/12=2,14=11,16=1,17=2,28=-2,42=3/2,10,12;
 6/7=2,8=2,9=2,10=2/1;
 7/8=1,10=1,12=2,25=1,44=2/1,2,3,16;
 1/10=4,30=1/3;
 99//99;
 Structure from the checkpoint file:  "/scratch-local/aubhfc.CH2Cl2C2vcomG09.68332/Gau-33902.chk"
 ----------
 CH2Cl2_C2v
 ----------
 Charge =  0 Multiplicity = 1
 Redundant internal coordinates found in file.
 C,0,0.,0.,0.7636554632
 Cl,0,0.,1.4684208932,-0.2164581914
 Cl,0,0.,-1.4684208932,-0.2164581914
 H,0,0.8936982962,0.,1.3737803346
 H,0,-0.8936982962,0.,1.3737803346
 Recover connectivity data from disk.

 GradGradGradGradGradGradGradGradGradGradGradGradGradGradGradGradGradGrad
 Berny optimization.
 Initialization pass.
                           ----------------------------
                           !    Initial Parameters    !
                           ! (Angstroms and Degrees)  !
 --------------------------                            --------------------------
 ! Name  Definition              Value          Derivative Info.                !
 --------------------------------------------------------------------------------
 ! R1    R(1,2)                  1.7655         calculate D2E/DX2 analytically  !
 ! R2    R(1,3)                  1.7655         calculate D2E/DX2 analytically  !
 ! R3    R(1,4)                  1.0821         calculate D2E/DX2 analytically  !
 ! R4    R(1,5)                  1.0821         calculate D2E/DX2 analytically  !
 ! A1    A(2,1,3)              112.5569         calculate D2E/DX2 analytically  !
 ! A2    A(2,1,4)              108.2411         calculate D2E/DX2 analytically  !
 ! A3    A(2,1,5)              108.2411         calculate D2E/DX2 analytically  !
 ! A4    A(3,1,4)              108.2411         calculate D2E/DX2 analytically  !
 ! A5    A(3,1,5)              108.2411         calculate D2E/DX2 analytically  !
 ! A6    A(4,1,5)              111.3576         calculate D2E/DX2 analytically  !
 ! D1    D(2,1,4,3)           -122.2686         calculate D2E/DX2 analytically  !
 ! D2    D(2,1,5,3)            122.2686         calculate D2E/DX2 analytically  !
 ! D3    D(2,1,5,4)           -118.8657         calculate D2E/DX2 analytically  !
 ! D4    D(3,1,5,4)            118.8657         calculate D2E/DX2 analytically  !
 --------------------------------------------------------------------------------
 Trust Radius=3.00D-01 FncErr=1.00D-07 GrdErr=1.00D-07
 Number of steps in this run=      2 maximum allowed number of steps=      2.
 GradGradGradGradGradGradGradGradGradGradGradGradGradGradGradGradGradGrad

                          Input orientation:                          
 ---------------------------------------------------------------------
 Center     Atomic      Atomic             Coordinates (Angstroms)
 Number     Number       Type             X           Y           Z
 ---------------------------------------------------------------------
      1          6           0        0.000000   -0.000000    0.763655
      2         17           0        0.000000    1.468421   -0.216458
      3         17           0       -0.000000   -1.468421   -0.216458
      4          1           0        0.893698   -0.000000    1.373780
      5          1           0       -0.893698    0.000000    1.373780
 ---------------------------------------------------------------------
                    Distance matrix (angstroms):
                    1          2          3          4          5
     1  C    0.000000
     2  Cl   1.765470   0.000000
     3  Cl   1.765470   2.936842   0.000000
     4  H    1.082104   2.341755   2.341755   0.000000
     5  H    1.082104   2.341755   2.341755   1.787397   0.000000
 Stoichiometry    CH2Cl2
 Framework group  C2V[C2(C),SGV(Cl2),SGV'(H2)]
 Deg. of freedom     4
 Full point group                 C2V     NOp   4
 Largest Abelian subgroup         C2V     NOp   4
 Largest concise Abelian subgroup C2V     NOp   4
                         Standard orientation:                         
 ---------------------------------------------------------------------
 Center     Atomic      Atomic             Coordinates (Angstroms)
 Number     Number       Type             X           Y           Z
 ---------------------------------------------------------------------
      1          6           0        0.000000    0.000000    0.764372
      2         17           0       -0.000000    1.468421   -0.215742
      3         17           0       -0.000000   -1.468421   -0.215742
      4          1           0        0.893698   -0.000000    1.374497
      5          1           0       -0.893698    0.000000    1.374497
 ---------------------------------------------------------------------
 Rotational constants (GHZ):     32.4658568      3.3158357      3.0673562
 Standard basis: 6-311++G(2df,2pd) (5D, 7F)
 There are    63 symmetry adapted cartesian basis functions of A1  symmetry.
 There are    21 symmetry adapted cartesian basis functions of A2  symmetry.
 There are    35 symmetry adapted cartesian basis functions of B1  symmetry.
 There are    46 symmetry adapted cartesian basis functions of B2  symmetry.
 There are    55 symmetry adapted basis functions of A1  symmetry.
 There are    20 symmetry adapted basis functions of A2  symmetry.
 There are    32 symmetry adapted basis functions of B1  symmetry.
 There are    41 symmetry adapted basis functions of B2  symmetry.
   148 basis functions,   226 primitive gaussians,   165 cartesian basis functions
    21 alpha electrons       21 beta electrons
       nuclear repulsion energy       134.7507745119 Hartrees.
 NAtoms=    5 NActive=    5 NUniq=    3 SFac= 2.78D+00 NAtFMM=   60 NAOKFM=F Big=F
 Integral buffers will be    131072 words long.
 Raffenetti 1 integral format.
 Two-electron integral symmetry is turned on.
 One-electron integrals computed using PRISM.
 PrsmSu:  requested number of processors reduced to:   4 ShMem   1 Linda.
 NBasis=   148 RedAO= T EigKep=  3.23D-04  NBF=    55    20    32    41
 NBsUse=   148 1.00D-06 EigRej= -1.00D+00 NBFU=    55    20    32    41
 Initial guess from the checkpoint file:  "/scratch-local/aubhfc.CH2Cl2C2vcomG09.68332/Gau-33902.chk"
 B after Tr=     0.000000    0.000000    0.000000
         Rot=    1.000000   -0.000000   -0.000000   -0.000000 Ang=   0.00 deg.
 Initial guess orbital symmetries:
       Occupied  (B2) (A1) (A1) (B2) (A1) (B2) (A1) (A1) (B2) (A2)
                 (B1) (A1) (B2) (A1) (B1) (A1) (B2) (A2) (A1) (B2)
                 (B1)
       Virtual   (A1) (B1) (A1) (B2) (A1) (A1) (B2) (B1) (A2) (A1)
                 (B2) (B1) (A1) (B2) (A1) (B1) (B2) (A1) (A1) (B2)
                 (B1) (A2) (A1) (B2) (B1) (A1) (A2) (A1) (B2) (B1)
                 (A1) (B1) (A2) (B2) (A1) (A1) (B2) (B1) (A2) (B2)
                 (A1) (B1) (A1) (B1) (B2) (A1) (B2) (A1) (B2) (A2)
                 (A1) (B1) (A1) (B1) (B2) (A2) (A1) (B2) (B1) (A2)
                 (A1) (B2) (B2) (A1) (A2) (B1) (A1) (B2) (B1) (A1)
                 (A2) (A1) (B2) (B1) (A1) (A2) (B2) (A1) (A2) (B1)
                 (B2) (B1) (B2) (A1) (A1) (B2) (A2) (B1) (B1) (A1)
                 (A1) (B1) (A2) (B2) (B1) (A1) (B2) (A1) (A2) (B1)
                 (A1) (B2) (A1) (B1) (A2) (A1) (B2) (B2) (B2) (B1)
                 (A1) (A2) (B1) (A1) (A1) (B1) (A1) (B2) (A1) (B2)
                 (B1) (A2) (A1) (B2) (A1) (A1) (B2)
 Requested convergence on RMS density matrix=1.00D-08 within 128 cycles.
 Requested convergence on MAX density matrix=1.00D-06.
 Requested convergence on             energy=1.00D-06.
 No special actions if energy rises.
 SCF Done:  E(RHF) =  -958.062645483     A.U. after    1 cycles
            NFock=  1  Conv=0.87D-09     -V/T= 2.0000
 ExpMin= 3.60D-02 ExpMax= 1.06D+05 ExpMxC= 3.62D+03 IAcc=3 IRadAn=         5 AccDes= 0.00D+00
 HarFok:  IExCor=  205 AccDes= 0.00D+00 IRadAn=         5 IDoV=-2 UseB2=F ITyADJ=14
 ICtDFT= 12500011 ScaDFX=  1.000000  1.000000  1.000000  1.000000
 Range of M.O.s used for correlation:    12   148
 NBasis=   148 NAE=    21 NBE=    21 NFC=    11 NFV=     0
 NROrb=    137 NOA=    10 NOB=    10 NVA=   127 NVB=   127

 **** Warning!!: The largest alpha MO coefficient is  0.36078241D+02

 Disk-based method using ON**2 memory for 10 occupieds at a time.
 Permanent disk used for amplitudes=     8793099 words.
 Estimated scratch disk usage=    39925808 words.
 Actual    scratch disk usage=    39158320 words.
 GetIJB would need an additional    84296435 words of memory to use all   8 processors.
 JobTyp=1 Pass  1:  I=  12 to  21 NPSUse=  2 ParTrn=F ParDer=T DoDerP=T.
 PrsmSu:  requested number of processors reduced to:   4 ShMem   1 Linda.
 Spin components of T(2) and E(2):
     alpha-alpha T2 =       0.2535731858D-01 E2=     -0.6655610966D-01
     alpha-beta  T2 =       0.1408722383D+00 E2=     -0.4099357825D+00
     beta-beta   T2 =       0.2535731858D-01 E2=     -0.6655610966D-01
 ANorm=    0.1091598312D+01
 E2 =    -0.5430480019D+00 EUMP2 =    -0.95860569348472D+03
 PrsmSu:  requested number of processors reduced to:   4 ShMem   1 Linda.
 G2DrvN: will do     6 centers at a time, making    1 passes.
 Calling FoFCou, ICntrl=  3107 FMM=F I1Cent=   0 AccDes= 0.00D+00.
 End of G2Drv F.D. properties file   721 does not exist.
 End of G2Drv F.D. properties file   722 does not exist.
 End of G2Drv F.D. properties file   788 does not exist.
          IDoAtm=11111
          Differentiating once with respect to electric field.
                with respect to dipole field.
          Differentiating once with respect to nuclear coordinates.
 PrRfSu:  requested number of processors reduced to:   7 ShMem   1 Linda.
          There are    18 degrees of freedom in the 1st order CPHF.  IDoFFX=6 NUNeed=    18.
     15 vectors produced by pass  0 Test12= 1.48D-14 5.56D-09 XBig12= 1.32D+01 1.26D+00.
 AX will form    15 AO Fock derivatives at one time.
     15 vectors produced by pass  1 Test12= 1.48D-14 5.56D-09 XBig12= 7.87D-01 2.47D-01.
     15 vectors produced by pass  2 Test12= 1.48D-14 5.56D-09 XBig12= 2.56D-02 5.31D-02.
     15 vectors produced by pass  3 Test12= 1.48D-14 5.56D-09 XBig12= 9.46D-04 5.40D-03.
     15 vectors produced by pass  4 Test12= 1.48D-14 5.56D-09 XBig12= 1.98D-05 1.09D-03.
     15 vectors produced by pass  5 Test12= 1.48D-14 5.56D-09 XBig12= 2.97D-07 1.45D-04.
     15 vectors produced by pass  6 Test12= 1.48D-14 5.56D-09 XBig12= 3.10D-09 1.23D-05.
      9 vectors produced by pass  7 Test12= 1.48D-14 5.56D-09 XBig12= 2.43D-11 9.95D-07.
      3 vectors produced by pass  8 Test12= 1.48D-14 5.56D-09 XBig12= 1.64D-13 9.45D-08.
      1 vectors produced by pass  9 Test12= 1.48D-14 5.56D-09 XBig12= 1.06D-15 8.06D-09.
 InvSVY:  IOpt=1 It=  1 EMax= 8.88D-16
 Solved reduced A of dimension   118 with    15 vectors.
 PrRfSu:  requested number of processors reduced to:   7 ShMem   1 Linda.
 End of Minotr F.D. properties file   721 does not exist.
 End of Minotr F.D. properties file   722 does not exist.
 End of Minotr F.D. properties file   788 does not exist.
 MDV=    33554432.
 Form MO integral derivatives with frozen-active canonical formalism.
 Discarding MO integrals.
 Reordered first order wavefunction length =     14225778
 In DefCFB: NBatch=  1 ICI= 21 ICA=127 LFMax= 19
            Large arrays: LIAPS=   260512560 LIARS=   144778095 words.
 Semi-Direct transformation.
 ModeAB=           4 MOrb=            21 LenV=      32880204
 LASXX=     30713991 LTotXX=    30713991 LenRXX=    62051262
 LTotAB=    31337271 MaxLAS=    21044268 LenRXY=           0
 NonZer=    92765253 LenScr=   141465600 LnRSAI=    21044268
 LnScr1=    32320512 LExtra=           0 Total=    256881642
 MaxDsk=          -1 SrtSym=           T ITran=            4
 GetIJB would need an additional    19506545 words of memory to use all   8 processors.
 JobTyp=0 Pass  1:  I=   1 to  21.
 Spin components of T(2) and E(2):
     alpha-alpha T2 =       0.2535731858D-01 E2=     -0.6655610966D-01
     alpha-beta  T2 =       0.1408722383D+00 E2=     -0.4099357825D+00
     beta-beta   T2 =       0.2535731858D-01 E2=     -0.6655610966D-01
 ANorm=    0.1543753138D+01
 E2 =    -0.5430480019D+00 EUMP2 =    -0.95860569348472D+03
          IDoAtm=11111
          Differentiating once with respect to electric field.
                with respect to dipole field.
          Differentiating once with respect to nuclear coordinates.
          There are     1 degrees of freedom in the 1st order CPHF.  IDoFFX=0 NUNeed=     1.
 LinEq1:  Iter=  0 NonCon=     1 RMS=2.60D-03 Max=4.14D-02 NDo=     1
 LinEq1:  Iter=  1 NonCon=     1 RMS=9.81D-04 Max=1.79D-02 NDo=     1
 LinEq1:  Iter=  2 NonCon=     1 RMS=2.36D-04 Max=3.65D-03 NDo=     1
 LinEq1:  Iter=  3 NonCon=     1 RMS=6.77D-05 Max=9.15D-04 NDo=     1
 LinEq1:  Iter=  4 NonCon=     1 RMS=1.15D-05 Max=1.56D-04 NDo=     1
 LinEq1:  Iter=  5 NonCon=     1 RMS=2.13D-06 Max=2.86D-05 NDo=     1
 LinEq1:  Iter=  6 NonCon=     1 RMS=5.53D-07 Max=6.54D-06 NDo=     1
 LinEq1:  Iter=  7 NonCon=     1 RMS=8.04D-08 Max=8.31D-07 NDo=     1
 LinEq1:  Iter=  8 NonCon=     1 RMS=2.48D-08 Max=4.05D-07 NDo=     1
 LinEq1:  Iter=  9 NonCon=     1 RMS=5.04D-09 Max=8.58D-08 NDo=     1
 LinEq1:  Iter= 10 NonCon=     1 RMS=8.87D-10 Max=1.34D-08 NDo=     1
 LinEq1:  Iter= 11 NonCon=     1 RMS=1.41D-10 Max=2.43D-09 NDo=     1
 LinEq1:  Iter= 12 NonCon=     0 RMS=1.65D-11 Max=2.38D-10 NDo=     1
 Linear equations converged to 1.000D-10 1.000D-09 after    12 iterations.
 End of Minotr F.D. properties file   721 does not exist.
 End of Minotr F.D. properties file   722 does not exist.
 End of Minotr F.D. properties file   788 does not exist.
 Symmetrizing basis deriv contribution to polar:
 IMax=3 JMax=2 DiffMx= 0.00D+00
 G2DrvN: will do     6 centers at a time, making    1 passes.
 Calling FoFCou, ICntrl=  3107 FMM=F I1Cent=   0 AccDes= 0.00D+00.
 End of G2Drv F.D. properties file   721 does not exist.
 End of G2Drv F.D. properties file   722 does not exist.
 End of G2Drv F.D. properties file   788 does not exist.
 Would need an additional   156299543 words for in-memory AO integral storage.
 DD1Dir will call FoFJK  10 times, MxPair=        48
 NAB=   231 NAA=     0 NBB=     0 NumPrc=  6.
 FoFJK:  IHMeth= 1 ICntrl=     200 DoSepK=F KAlg= 0 I1Cent=   0 FoldK=F
 IRaf= 990000000 NMat=  48 IRICut=      60 DoRegI=T DoRafI=T ISym2E=-1.
 FoFCou: FMM=F IPFlag=           0 FMFlag=           0 FMFlg1=           0
         NFxFlg=           0 DoJE=F BraDBF=F KetDBF=F FulRan=T
         wScrn=  0.000000 ICntrl=     200 IOpCl=  0 I1Cent=           0 NGrid=           0
         NMat0=   48 NMatS0=      0 NMatT0=   24 NMatD0=   48 NMtDS0=    0 NMtDT0=    0
 Petite list used in FoFCou.
 PrRfSu:  requested number of processors reduced to:   7 ShMem   1 Linda.
 PrRfSu:  requested number of processors reduced to:   7 ShMem   1 Linda.
 PrRfSu:  requested number of processors reduced to:   7 ShMem   1 Linda.
 PrRfSu:  requested number of processors reduced to:   7 ShMem   1 Linda.
 PrRfSu:  requested number of processors reduced to:   7 ShMem   1 Linda.
 PrRfSu:  requested number of processors reduced to:   7 ShMem   1 Linda.
 PrRfSu:  requested number of processors reduced to:   7 ShMem   1 Linda.
 PrRfSu:  requested number of processors reduced to:   7 ShMem   1 Linda.
 PrRfSu:  requested number of processors reduced to:   7 ShMem   1 Linda.
 PrRfSu:  requested number of processors reduced to:   7 ShMem   1 Linda.
 PrRfSu:  requested number of processors reduced to:   7 ShMem   1 Linda.
 Discarding MO integrals.

 **********************************************************************

            Population analysis using the SCF density.

 **********************************************************************

 Orbital symmetries:
       Occupied  (B2) (A1) (A1) (B2) (A1) (B2) (A1) (A1) (B2) (A2)
                 (B1) (A1) (B2) (A1) (B1) (A1) (B2) (A2) (A1) (B2)
                 (B1)
       Virtual   (A1) (B1) (A1) (B2) (A1) (A1) (B2) (B1) (A2) (A1)
                 (B2) (B1) (A1) (B2) (A1) (B1) (B2) (A1) (A1) (B2)
                 (B1) (A2) (A1) (B2) (B1) (A1) (A2) (A1) (B2) (B1)
                 (A1) (B1) (A2) (B2) (A1) (A1) (B2) (B1) (A2) (B2)
                 (A1) (B1) (A1) (B1) (B2) (A1) (B2) (A1) (B2) (A2)
                 (A1) (B1) (A1) (B1) (B2) (A2) (A1) (B2) (B1) (A2)
                 (A1) (B2) (B2) (A1) (A2) (B1) (A1) (B2) (B1) (A1)
                 (A2) (A1) (B2) (B1) (A1) (A2) (B2) (A1) (A2) (B1)
                 (B2) (B1) (B2) (A1) (A1) (B2) (A2) (B1) (B1) (A1)
                 (A1) (B1) (A2) (B2) (B1) (A1) (B2) (A1) (A2) (B1)
                 (A1) (B2) (A1) (B1) (A2) (A1) (B2) (B2) (B2) (B1)
                 (A1) (A2) (B1) (A1) (A1) (B1) (A1) (B2) (A1) (B2)
                 (B1) (A2) (A1) (B2) (A1) (A1) (B2)
 The electronic state is 1-A1.
 Alpha  occ. eigenvalues -- -104.84811-104.84811 -11.36353 -10.57401 -10.57400
 Alpha  occ. eigenvalues --   -8.04168  -8.04168  -8.03965  -8.03965  -8.03955
 Alpha  occ. eigenvalues --   -8.03955  -1.19510  -1.09775  -0.89706  -0.67857
 Alpha  occ. eigenvalues --   -0.61899  -0.58732  -0.47484  -0.47190  -0.44864
 Alpha  occ. eigenvalues --   -0.44663
 Alpha virt. eigenvalues --    0.04021   0.06330   0.08409   0.08709   0.13288
 Alpha virt. eigenvalues --    0.13587   0.13737   0.14477   0.14855   0.16904
 Alpha virt. eigenvalues --    0.17356   0.20261   0.20576   0.23409   0.24261
 Alpha virt. eigenvalues --    0.26392   0.26809   0.34122   0.50655   0.52337
 Alpha virt. eigenvalues --    0.53245   0.53868   0.56712   0.58745   0.59356
 Alpha virt. eigenvalues --    0.59454   0.60023   0.60161   0.60618   0.63978
 Alpha virt. eigenvalues --    0.68702   0.69430   0.70073   0.70097   0.75243
 Alpha virt. eigenvalues --    0.88165   0.88349   0.93668   0.95360   0.95750
 Alpha virt. eigenvalues --    0.98752   1.20694   1.22094   1.26338   1.29879
 Alpha virt. eigenvalues --    1.30216   1.31793   1.43390   1.47318   1.47448
 Alpha virt. eigenvalues --    1.49556   1.58356   1.70784   2.21517   2.27693
 Alpha virt. eigenvalues --    2.33604   2.34848   2.37758   2.38103   2.38783
 Alpha virt. eigenvalues --    2.38902   2.39191   2.44324   2.48557   2.48927
 Alpha virt. eigenvalues --    2.51856   2.54132   2.58913   2.62031   2.63354
 Alpha virt. eigenvalues --    2.67928   2.70818   2.71836   2.72703   2.76149
 Alpha virt. eigenvalues --    2.76444   2.77454   2.85779   2.88040   2.88719
 Alpha virt. eigenvalues --    2.90268   2.93093   2.96521   3.00098   3.13289
 Alpha virt. eigenvalues --    3.17483   3.27182   3.33703   3.41120   3.47379
 Alpha virt. eigenvalues --    3.55792   3.56363   3.67932   3.76406   3.79644
 Alpha virt. eigenvalues --    3.86741   3.91077   3.92473   4.02813   4.08733
 Alpha virt. eigenvalues --    4.09731   4.24061   4.30973   4.37608   4.42846
 Alpha virt. eigenvalues --    4.51236   4.53351   4.88284   5.11366   5.16617
 Alpha virt. eigenvalues --    5.20758   5.26361   5.40358   5.40936   5.89539
 Alpha virt. eigenvalues --    6.63219  10.46936  10.50655  25.85113  26.73878
 Alpha virt. eigenvalues --   26.79872  26.98092  27.01221  28.27339  28.54510
 Alpha virt. eigenvalues --  219.32663 219.35684
          Condensed to atoms (all electrons):
               1          2          3          4          5
     1  C    4.392077   0.264056   0.264056   0.440328   0.440328
     2  Cl   0.264056  16.944678  -0.066159  -0.030087  -0.030087
     3  Cl   0.264056  -0.066159  16.944678  -0.030087  -0.030087
     4  H    0.440328  -0.030087  -0.030087   0.694593  -0.057573
     5  H    0.440328  -0.030087  -0.030087  -0.057573   0.694593
 Mulliken charges:
               1
     1  C    0.199153
     2  Cl  -0.082402
     3  Cl  -0.082402
     4  H   -0.017175
     5  H   -0.017175
 Sum of Mulliken charges =   0.00000
 Mulliken charges with hydrogens summed into heavy atoms:
               1
     1  C    0.164803
     2  Cl  -0.082402
     3  Cl  -0.082402
 APT charges:
               1
     1  C    0.597862
     2  Cl  -0.287637
     3  Cl  -0.287637
     4  H   -0.011294
     5  H   -0.011294
 Sum of APT charges =   0.00000
 APT charges with hydrogens summed into heavy atoms:
               1
     1  C    0.575273
     2  Cl  -0.287637
     3  Cl  -0.287637
 Electronic spatial extent (au):  <R**2>=            370.6475
 Charge=              0.0000 electrons
 Dipole moment (field-independent basis, Debye):
    X=             -0.0000    Y=              0.0000    Z=              1.8431  Tot=              1.8431
 Quadrupole moment (field-independent basis, Debye-Ang):
   XX=            -31.6593   YY=            -34.5154   ZZ=            -29.9617
   XY=             -0.0000   XZ=             -0.0000   YZ=              0.0000
 Traceless Quadrupole moment (field-independent basis, Debye-Ang):
   XX=              0.3861   YY=             -2.4699   ZZ=              2.0838
   XY=             -0.0000   XZ=             -0.0000   YZ=              0.0000
 Octapole moment (field-independent basis, Debye-Ang**2):
  XXX=              0.0000  YYY=             -0.0000  ZZZ=              2.0738  XYY=              0.0000
  XXY=             -0.0000  XXZ=              2.0952  XZZ=              0.0000  YZZ=             -0.0000
  YYZ=             -4.5636  XYZ=             -0.0000
 Hexadecapole moment (field-independent basis, Debye-Ang**3):
 XXXX=            -41.7469 YYYY=           -356.4237 ZZZZ=            -72.6427 XXXY=             -0.0000
 XXXZ=             -0.0000 YYYX=             -0.0000 YYYZ=             -0.0000 ZZZX=             -0.0000
 ZZZY=             -0.0000 XXYY=            -71.3673 XXZZ=            -17.2644 YYZZ=            -71.0829
 XXYZ=              0.0000 YYXZ=             -0.0000 ZZXY=             -0.0000
 N-N= 1.347507745119D+02 E-N=-2.548947203400D+03  KE= 9.580530036570D+02
 Symmetry A1   KE= 4.490101900264D+02
 Symmetry A2   KE= 4.588187571504D+01
 Symmetry B1   KE= 4.786506623962D+01
 Symmetry B2   KE= 4.152958716759D+02
  Exact polarizability:  29.709  -0.000  49.588   0.000  -0.000  34.025
 Approx polarizability:  29.566  -0.000  41.420   0.000  -0.000  33.334
 PrsmSu:  requested number of processors reduced to:   4 ShMem   1 Linda.
 PrsmSu:  requested number of processors reduced to:   4 ShMem   1 Linda.
 Calling FoFJK, ICntrl=  10100127 FMM=F ISym2X=1 I1Cent= 0 IOpClX= 0 NMat=1 NMatS=1 NMatT=0.
 CoulSu:  requested number of processors reduced to:   4 ShMem   1 Linda.
 Full mass-weighted force constant matrix:
 Low frequencies ---  -17.3013  -10.1842   -9.5290   -0.0046   -0.0039    0.0022
 Low frequencies ---  290.6311  741.2087  797.6411
 Diagonal vibrational polarizability:
        0.0447653       6.0468405       0.6674348
 Harmonic frequencies (cm**-1), IR intensities (KM/Mole), Raman scattering
 activities (A**4/AMU), depolarization ratios for plane and unpolarized
 incident light, reduced masses (AMU), force constants (mDyne/A),
 and normal coordinates:
                      1                      2                      3
                     A1                     A1                     B2
 Frequencies --    290.6311               741.2087               797.6411
 Red. masses --     19.1289                 7.4358                 8.2570
 Frc consts  --      0.9520                 2.4069                 3.0952
 IR Inten    --      0.3805                10.8380               126.4275
  Atom  AN      X      Y      Z        X      Y      Z        X      Y      Z
     1   6     0.00   0.00  -0.42    -0.00  -0.00   0.62     0.00   0.70   0.00
     2  17    -0.00   0.48   0.08     0.00   0.13  -0.12    -0.00  -0.13   0.10
     3  17    -0.00  -0.48   0.08     0.00  -0.13  -0.12    -0.00  -0.13  -0.10
     4   1    -0.01   0.00  -0.42     0.08  -0.00   0.52     0.00   0.48   0.00
     5   1     0.01   0.00  -0.42    -0.08  -0.00   0.52    -0.00   0.48   0.00
                      4                      5                      6
                     B1                     A2                     B2
 Frequencies --    914.3517              1189.5258              1299.3009
 Red. masses --      1.3578                 1.0183                 1.1143
 Frc consts  --      0.6688                 0.8489                 1.1083
 IR Inten    --      1.3633                 0.0000                43.8640
  Atom  AN      X      Y      Z        X      Y      Z        X      Y      Z
     1   6     0.17  -0.00   0.00    -0.00  -0.00  -0.00    -0.00  -0.09   0.00
     2  17    -0.02   0.00  -0.00     0.01   0.00   0.00     0.00  -0.00   0.01
     3  17    -0.02  -0.00  -0.00    -0.01   0.00   0.00     0.00  -0.00  -0.01
     4   1    -0.26   0.00   0.65     0.00   0.71  -0.00     0.00   0.70  -0.00
     5   1    -0.26  -0.00  -0.65     0.00  -0.71   0.00    -0.00   0.70  -0.00
                      7                      8                      9
                     A1                     A1                     B1
 Frequencies --   1479.0059              3160.6625              3243.3815
 Red. masses --      1.0750                 1.0544                 1.1158
 Frc consts  --      1.3854                 6.2060                 6.9156
 IR Inten    --      0.0093                 5.6486                 0.3451
  Atom  AN      X      Y      Z        X      Y      Z        X      Y      Z
     1   6     0.00  -0.00  -0.08     0.00  -0.00  -0.07    -0.10   0.00  -0.00
     2  17    -0.00   0.00  -0.00    -0.00  -0.00   0.00     0.00  -0.00  -0.00
     3  17     0.00  -0.00  -0.00    -0.00   0.00   0.00     0.00   0.00  -0.00
     4   1    -0.41   0.00   0.57     0.59   0.00   0.38     0.58   0.00   0.39
     5   1     0.41   0.00   0.57    -0.59   0.00   0.38     0.58  -0.00  -0.39

 -------------------
 - Thermochemistry -
 -------------------
 Temperature   298.150 Kelvin.  Pressure   1.00000 Atm.
 Atom     1 has atomic number  6 and mass  12.00000
 Atom     2 has atomic number 17 and mass  34.96885
 Atom     3 has atomic number 17 and mass  34.96885
 Atom     4 has atomic number  1 and mass   1.00783
 Atom     5 has atomic number  1 and mass   1.00783
 Molecular mass:    83.95336 amu.
 Principal axes and moments of inertia in atomic units:
                           1         2         3
     Eigenvalues --    55.58890 544.27944 588.37027
           X            0.00000   0.00000   1.00000
           Y            1.00000   0.00000   0.00000
           Z           -0.00000   1.00000  -0.00000
 This molecule is an asymmetric top.
 Rotational symmetry number  2.
 Rotational temperatures (Kelvin)      1.55811     0.15913     0.14721
 Rotational constants (GHZ):          32.46586     3.31584     3.06736
 Zero-point vibrational energy      78449.4 (Joules/Mol)
                                   18.74985 (Kcal/Mol)
 Warning -- explicit consideration of   1 degrees of freedom as
           vibrations may cause significant error
 Vibrational temperatures:    418.15  1066.43  1147.63  1315.55  1711.46
          (Kelvin)           1869.40  2127.96  4547.48  4666.50
 
 Zero-point correction=                           0.029880 (Hartree/Particle)
 Thermal correction to Energy=                    0.033406
 Thermal correction to Enthalpy=                  0.034350
 Thermal correction to Gibbs Free Energy=         0.003768
 Sum of electronic and zero-point Energies=           -958.575814
 Sum of electronic and thermal Energies=              -958.572288
 Sum of electronic and thermal Enthalpies=            -958.571344
 Sum of electronic and thermal Free Energies=         -958.601926
 
                     E (Thermal)             CV                S
                      KCal/Mol        Cal/Mol-Kelvin    Cal/Mol-Kelvin
 Total                   20.962              9.982             64.366
 Electronic               0.000              0.000              0.000
 Translational            0.889              2.981             39.197
 Rotational               0.889              2.981             23.013
 Vibrational             19.185              4.020              2.156
 Vibration     1          0.687              1.691              1.470
                       Q            Log10(Q)             Ln(Q)
 Total Bot       0.184924D-01         -1.733007         -3.990397
 Total V=0       0.102497D+13         12.010710         27.655682
 Vib (Bot)       0.256114D-13        -13.591566        -31.295738
 Vib (Bot)    1  0.657767D+00         -0.181928         -0.418905
 Vib (V=0)       0.141955D+01          0.152151          0.350340
 Vib (V=0)    1  0.132623D+01          0.122619          0.282341
 Electronic      0.100000D+01          0.000000          0.000000
 Translational   0.302352D+08          7.480512         17.224516
 Rotational      0.238807D+05          4.378047         10.080825
 ***** Axes restored to original set *****
 -------------------------------------------------------------------
 Center     Atomic                   Forces (Hartrees/Bohr)
 Number     Number              X              Y              Z
 -------------------------------------------------------------------
      1        6          -0.000000000   -0.000000000    0.000377154
      2       17          -0.000000000    0.000319790   -0.000161243
      3       17          -0.000000000   -0.000319790   -0.000161243
      4        1           0.000028252    0.000000000   -0.000027334
      5        1          -0.000028252    0.000000000   -0.000027334
 -------------------------------------------------------------------
 Cartesian Forces:  Max     0.000377154 RMS     0.000163680
 FormGI is forming the generalized inverse of G from B-inverse, IUseBI=4.

 GradGradGradGradGradGradGradGradGradGradGradGradGradGradGradGradGradGrad
 Berny optimization.
 Internal  Forces:  Max     0.000355499 RMS     0.000137838
 Search for a local minimum.
 Step number   1 out of a maximum of    2
 All quantities printed in internal units (Hartrees-Bohrs-Radians)
 Second derivative matrix not updated -- analytic derivatives used.
 The second derivative matrix:
                          R1        R2        R3        R4        A1
           R1           0.23465
           R2           0.02861   0.23465
           R3           0.00392   0.00392   0.36147
           R4           0.00392   0.00392   0.00162   0.36147
           A1           0.00368   0.00368   0.00140   0.00104   0.03221
           A2           0.00974  -0.00126  -0.00157  -0.00386  -0.01008
           A3           0.01814  -0.01240  -0.00365  -0.00127  -0.01790
           A4          -0.00126   0.00974  -0.00157  -0.00386  -0.01008
           A5          -0.01240   0.01814  -0.00365  -0.00127  -0.01790
           A6          -0.01849  -0.01849   0.00938   0.00955   0.02501
           D1          -0.00953  -0.00953   0.00018   0.00335  -0.02694
           D2           0.00789   0.00789  -0.00266  -0.00026   0.01760
           D3          -0.01239   0.02028  -0.00133  -0.00013   0.00880
           D4          -0.02028   0.01239   0.00133   0.00013  -0.00880
                          A2        A3        A4        A5        A6
           A2           0.04540
           A3          -0.02947   0.08664
           A4           0.00104   0.02159   0.04540
           A5           0.02159  -0.03502  -0.02947   0.08664
           A6          -0.02963  -0.02700  -0.02963  -0.02700   0.09171
           D1          -0.01556   0.02638  -0.01556   0.02638   0.00514
           D2          -0.01692   0.00919  -0.01692   0.00919  -0.00199
           D3          -0.01961  -0.00231   0.00270   0.01151  -0.00100
           D4          -0.00270  -0.01151   0.01961   0.00231   0.00100
                          D1        D2        D3        D4
           D1           0.05123
           D2          -0.00108   0.03230
           D3          -0.00054   0.01615   0.02609
           D4           0.00054  -0.01615   0.00994   0.02609
 ITU=  0
     Eigenvalues ---    0.04483   0.06639   0.10705   0.13983   0.14062
     Eigenvalues ---    0.22263   0.27015   0.35993   0.36451
 Angle between quadratic step and forces=  19.84 degrees.
 Linear search not attempted -- first point.
 Iteration  1 RMS(Cart)=  0.00058796 RMS(Int)=  0.00000009
 Iteration  2 RMS(Cart)=  0.00000008 RMS(Int)=  0.00000004
 ClnCor:  largest displacement from symmetrization is 2.17D-08 for atom     5.
 Variable       Old X    -DE/DX   Delta X   Delta X   Delta X     New X
                                 (Linear)    (Quad)   (Total)
    R1        3.33625   0.00036   0.00000   0.00144   0.00144   3.33769
    R2        3.33625   0.00036   0.00000   0.00144   0.00144   3.33769
    R3        2.04488   0.00001   0.00000  -0.00004  -0.00004   2.04484
    R4        2.04488   0.00001   0.00000  -0.00004  -0.00004   2.04484
    A1        1.96449   0.00005   0.00000   0.00022   0.00022   1.96470
    A2        1.88916  -0.00003   0.00000  -0.00028  -0.00028   1.88888
    A3        1.88916  -0.00003   0.00000  -0.00028  -0.00028   1.88888
    A4        1.88916  -0.00003   0.00000  -0.00028  -0.00028   1.88888
    A5        1.88916  -0.00003   0.00000  -0.00028  -0.00028   1.88888
    A6        1.94356   0.00007   0.00000   0.00094   0.00094   1.94449
    D1       -2.13399  -0.00003   0.00000   0.00007   0.00007  -2.13392
    D2        2.13399   0.00003   0.00000  -0.00007  -0.00007   2.13392
    D3       -2.07460   0.00001   0.00000  -0.00004  -0.00004  -2.07463
    D4        2.07460  -0.00001   0.00000   0.00004   0.00004   2.07463
         Item               Value     Threshold  Converged?
 Maximum Force            0.000355     0.000450     YES
 RMS     Force            0.000138     0.000300     YES
 Maximum Displacement     0.001393     0.001800     YES
 RMS     Displacement     0.000588     0.001200     YES
 Predicted change in Energy=-5.625338D-07
 Optimization completed.
    -- Stationary point found.
                           ----------------------------
                           !   Optimized Parameters   !
                           ! (Angstroms and Degrees)  !
 --------------------------                            --------------------------
 ! Name  Definition              Value          Derivative Info.                !
 --------------------------------------------------------------------------------
 ! R1    R(1,2)                  1.7655         -DE/DX =    0.0004              !
 ! R2    R(1,3)                  1.7655         -DE/DX =    0.0004              !
 ! R3    R(1,4)                  1.0821         -DE/DX =    0.0                 !
 ! R4    R(1,5)                  1.0821         -DE/DX =    0.0                 !
 ! A1    A(2,1,3)              112.5569         -DE/DX =    0.0001              !
 ! A2    A(2,1,4)              108.2411         -DE/DX =    0.0                 !
 ! A3    A(2,1,5)              108.2411         -DE/DX =    0.0                 !
 ! A4    A(3,1,4)              108.2411         -DE/DX =    0.0                 !
 ! A5    A(3,1,5)              108.2411         -DE/DX =    0.0                 !
 ! A6    A(4,1,5)              111.3576         -DE/DX =    0.0001              !
 ! D1    D(2,1,4,3)           -122.2686         -DE/DX =    0.0                 !
 ! D2    D(2,1,5,3)            122.2686         -DE/DX =    0.0                 !
 ! D3    D(2,1,5,4)           -118.8657         -DE/DX =    0.0                 !
 ! D4    D(3,1,5,4)            118.8657         -DE/DX =    0.0                 !
 --------------------------------------------------------------------------------
 GradGradGradGradGradGradGradGradGradGradGradGradGradGradGradGradGradGrad

 1\1\GINC-DMC2\Freq\RMP2-FC\6-311++G(2df,2pd)\C1H2Cl2\AUBHFC\31-Jan-201
 7\0\\#N Geom=AllCheck Guess=TCheck SCRF=Check GenChk RMP2(FC)/6-311++G
 (2df,2pd) Freq\\CH2Cl2_C2v\\0,1\C,0.,0.,0.7636554632\Cl,0.,1.468420893
 2,-0.2164581914\Cl,0.,-1.4684208932,-0.2164581914\H,0.8936982962,0.,1.
 3737803346\H,-0.8936982962,0.,1.3737803346\\Version=ES64L-G09RevE.01\S
 tate=1-A1\HF=-958.0626455\MP2=-958.6056935\RMSD=8.666e-10\RMSF=1.637e-
 04\ZeroPoint=0.0298798\Thermal=0.0334058\Dipole=0.,0.,0.6453384\Dipole
 Deriv=0.1243892,0.,0.,0.,1.301328,0.,0.,0.,0.3678675,-0.1123556,0.,0.,
 0.,-0.5712129,0.0988246,0.,0.2319697,-0.1793415,-0.1123556,0.,0.,0.,-0
 .5712129,-0.0988247,0.,-0.2319697,-0.1793415,0.050161,0.,-0.0425572,0.
 ,-0.0794511,0.,-0.0335946,0.,-0.0045922,0.050161,0.,0.0425572,0.,-0.07
 94511,0.,0.0335946,0.,-0.0045922\Polar=29.7087076,0.,49.5879696,0.,0.,
 34.0253392\PG=C02V [C2(C1),SGV(Cl2),SGV'(H2)]\NImag=0\\0.60154791,0.,0
 .27933967,0.,0.,0.44660924,-0.03845579,0.,0.,0.02316858,0.,-0.10567333
 ,0.07363438,0.,0.17002630,0.,0.05647533,-0.08636731,0.,-0.09518336,0.0
 9448756,-0.03845579,0.,0.,0.00349925,0.,0.,0.02316858,0.,-0.10567333,-
 0.07363438,0.,-0.03929967,-0.00253924,0.,0.17002630,0.,-0.05647533,-0.
 08636730,0.,0.00253924,0.01223865,0.,0.09518336,0.09448757,-0.26231817
 ,0.,-0.13637581,0.00589398,-0.00250398,0.00436027,0.00589398,0.0025039
 8,0.00436027,0.26761366,0.,-0.03399651,0.,0.01625386,-0.01252665,0.020
 62364,-0.01625386,-0.01252665,-0.02062364,0.,0.05622299,-0.13679784,0.
 ,-0.13693732,-0.01064716,0.00950487,-0.01017945,-0.01064716,-0.0095048
 7,-0.01017946,0.14287372,0.,0.14428092,-0.26231817,0.,0.13637581,0.005
 89398,0.00250398,-0.00436027,0.00589398,-0.00250398,-0.00436027,-0.017
 08346,0.,0.01521844,0.26761366,0.,-0.03399651,0.,-0.01625386,-0.012526
 65,0.02062364,0.01625386,-0.01252665,-0.02062364,0.,0.00282682,0.,0.,0
 .05622299,0.13679784,0.,-0.13693732,0.01064716,0.00950487,-0.01017945,
 0.01064716,-0.00950487,-0.01017946,-0.01521844,0.,0.01301531,-0.142873
 72,0.,0.14428092\\0.,0.,-0.00037715,0.,-0.00031979,0.00016124,0.,0.000
 31979,0.00016124,-0.00002825,0.,0.00002733,0.00002825,0.,0.00002733\\\
 @


 EVANS BOLDLY PUT 50 ATM. OF ETHYLENE IN A CELL WITH 25 ATM. OF OXYGEN.
 THE APPARATUS SUBSEQUENTLY BLEW UP, BUT LUCKILY NOT BEFORE HE
 OBTAINED THE SPECTRA SHOWN IN FIGURE 8.
 A.J.MERER AND R.S.MULLIKEN, CHEM.REV. 69, 645 (1969)
 Job cpu time:       0 days  0 hours 29 minutes 40.7 seconds.
 File lengths (MBytes):  RWF=   3310 Int=      0 D2E=      0 Chk=      3 Scr=      1
 Normal termination of Gaussian 09 at Tue Jan 31 21:18:21 2017.
