 Entering Gaussian System, Link 0=g16
 Input=ADNOQZQZUQQVRY-UHFFFAOYSA-N_cat-rad_vac.com
 Output=ADNOQZQZUQQVRY-UHFFFAOYSA-N_cat-rad_vac.log
 Initial command:
 /shared/apps/gaussian/gaussian-16/g16/l1.exe "/gss_gpfs_scratch/abreha.b/diazirines1_231_4_2018-08-02/cat-rad_dft-opt_vac/Gau-38786.inp" -scrdir="/gss_gpfs_scratch/abreha.b/diazirines1_231_4_2018-08-02/cat-rad_dft-opt_vac/"
 Entering Link 1 = /shared/apps/gaussian/gaussian-16/g16/l1.exe PID=     38787.
  
 Copyright (c) 1988,1990,1992,1993,1995,1998,2003,2009,2016,
            Gaussian, Inc.  All Rights Reserved.
  
 This is part of the Gaussian(R) 16 program.  It is based on
 the Gaussian(R) 09 system (copyright 2009, Gaussian, Inc.),
 the Gaussian(R) 03 system (copyright 2003, Gaussian, Inc.),
 the Gaussian(R) 98 system (copyright 1998, Gaussian, Inc.),
 the Gaussian(R) 94 system (copyright 1995, Gaussian, Inc.),
 the Gaussian 92(TM) system (copyright 1992, Gaussian, Inc.),
 the Gaussian 90(TM) system (copyright 1990, Gaussian, Inc.),
 the Gaussian 88(TM) system (copyright 1988, Gaussian, Inc.),
 the Gaussian 86(TM) system (copyright 1986, Carnegie Mellon
 University), and the Gaussian 82(TM) system (copyright 1983,
 Carnegie Mellon University). Gaussian is a federally registered
 trademark of Gaussian, Inc.
  
 This software contains proprietary and confidential information,
 including trade secrets, belonging to Gaussian, Inc.
  
 This software is provided under written license and may be
 used, copied, transmitted, or stored only in accord with that
 written license.
  
 The following legend is applicable only to US Government
 contracts under FAR:
  
                    RESTRICTED RIGHTS LEGEND
  
 Use, reproduction and disclosure by the US Government is
 subject to restrictions as set forth in subparagraphs (a)
 and (c) of the Commercial Computer Software - Restricted
 Rights clause in FAR 52.227-19.
  
 Gaussian, Inc.
 340 Quinnipiac St., Bldg. 40, Wallingford CT 06492
  
  
 ---------------------------------------------------------------
 Warning -- This program may not be used in any manner that
 competes with the business of Gaussian, Inc. or will provide
 assistance to any competitor of Gaussian, Inc.  The licensee
 of this program is prohibited from giving any competitor of
 Gaussian, Inc. access to this program.  By using this program,
 the user acknowledges that Gaussian, Inc. is engaged in the
 business of creating and licensing software in the field of
 computational chemistry and represents and warrants to the
 licensee that it is not a competitor of Gaussian, Inc. and that
 it will not use this program in any manner prohibited above.
 ---------------------------------------------------------------
  

 Cite this work as:
 Gaussian 16, Revision A.03,
 M. J. Frisch, G. W. Trucks, H. B. Schlegel, G. E. Scuseria, 
 M. A. Robb, J. R. Cheeseman, G. Scalmani, V. Barone, 
 G. A. Petersson, H. Nakatsuji, X. Li, M. Caricato, A. V. Marenich, 
 J. Bloino, B. G. Janesko, R. Gomperts, B. Mennucci, H. P. Hratchian, 
 J. V. Ortiz, A. F. Izmaylov, J. L. Sonnenberg, D. Williams-Young, 
 F. Ding, F. Lipparini, F. Egidi, J. Goings, B. Peng, A. Petrone, 
 T. Henderson, D. Ranasinghe, V. G. Zakrzewski, J. Gao, N. Rega, 
 G. Zheng, W. Liang, M. Hada, M. Ehara, K. Toyota, R. Fukuda, 
 J. Hasegawa, M. Ishida, T. Nakajima, Y. Honda, O. Kitao, H. Nakai, 
 T. Vreven, K. Throssell, J. A. Montgomery, Jr., J. E. Peralta, 
 F. Ogliaro, M. J. Bearpark, J. J. Heyd, E. N. Brothers, K. N. Kudin, 
 V. N. Staroverov, T. A. Keith, R. Kobayashi, J. Normand, 
 K. Raghavachari, A. P. Rendell, J. C. Burant, S. S. Iyengar, 
 J. Tomasi, M. Cossi, J. M. Millam, M. Klene, C. Adamo, R. Cammi, 
 J. W. Ochterski, R. L. Martin, K. Morokuma, O. Farkas, 
 J. B. Foresman, and D. J. Fox, Gaussian, Inc., Wallingford CT, 2016.
 
 ******************************************
 Gaussian 16:  EM64L-G16RevA.03 25-Dec-2016
                 3-Aug-2018 
 ******************************************
 %rwf=ADNOQZQZUQQVRY-UHFFFAOYSA-N_cat-rad_vac.rwf
 %NoSave
 %chk=ADNOQZQZUQQVRY-UHFFFAOYSA-N_cat-rad_vac.chk
 %mem=8GB
 %nproc=16
 Will use up to   16 processors via shared memory.
 ----------------------
 #p M06/6-31+G(d,p) opt
 ----------------------
 1/18=20,19=15,26=3,38=1/1,3;
 2/9=110,12=2,17=6,18=5,40=1/2;
 3/5=1,6=6,7=111,11=2,25=1,30=1,71=1,74=-54/1,2,3;
 4//1;
 5/5=2,38=5/2;
 6/7=2,8=2,9=2,10=2,28=1/1;
 7//1,2,3,16;
 1/18=20,19=15,26=3/3(2);
 2/9=110/2;
 99//99;
 2/9=110/2;
 3/5=1,6=6,7=111,11=2,25=1,30=1,71=1,74=-54/1,2,3;
 4/5=5,16=3,69=1/1;
 5/5=2,38=5/2;
 7//1,2,3,16;
 1/18=20,19=15,26=3/3(-5);
 2/9=110/2;
 6/7=2,8=2,9=2,10=2,19=2,28=1/1;
 99/9=1/99;
 Leave Link    1 at Fri Aug  3 01:14:46 2018, MaxMem=  1073741824 cpu:              23.9 elap:               1.6
 (Enter /shared/apps/gaussian/gaussian-16/g16/l101.exe)
 ---------------------------------------
 ADNOQZQZUQQVRY-UHFFFAOYSA-N_cat-rad_vac
 ---------------------------------------
 Symbolic Z-matrix:
 Charge =  1 Multiplicity = 2
 C                    -3.422     0.294     0. 
 C                    -1.989     0.654     0. 
 C                    -1.329     1.818     0. 
 C                     0.137     1.71      0. 
 C                     0.618     0.456     0. 
 C                     1.996    -0.029     0. 
 C                     2.297    -1.495     0. 
 N                     2.967     0.898     0.613 
 N                     2.967     0.898    -0.613 
 S                    -0.782    -0.675     0. 
 O                    -0.847    -1.41      1.263 
 O                    -0.847    -1.409    -1.263 
 H                    -3.669    -0.311    -0.882 
 H                    -3.669    -0.307     0.885 
 H                    -4.047     1.191    -0.002 
 H                    -1.829     2.783     0. 
 H                     0.775     2.59      0. 
 H                     1.876    -1.981     0.888 
 H                     3.379    -1.652     0. 
 H                     1.876    -1.982    -0.887 
 
 ITRead=  0  0  0  0  0  0  0  0  0  0  0  0  0  0  0  0  0  0  0  0
 MicOpt= -1 -1 -1 -1 -1 -1 -1 -1 -1 -1 -1 -1 -1 -1 -1 -1 -1 -1 -1 -1
 NAtoms=     20 NQM=       20 NQMF=       0 NMMI=      0 NMMIF=      0
                NMic=       0 NMicF=      0.
                    Isotopes and Nuclear Properties:
 (Nuclear quadrupole moments (NQMom) in fm**2, nuclear magnetic moments (NMagM)
  in nuclear magnetons)

  Atom         1           2           3           4           5           6           7           8           9          10
 IAtWgt=          12          12          12          12          12          12          12          14          14          32
 AtmWgt=  12.0000000  12.0000000  12.0000000  12.0000000  12.0000000  12.0000000  12.0000000  14.0030740  14.0030740  31.9720718
 NucSpn=           0           0           0           0           0           0           0           2           2           0
 AtZEff=  -0.0000000  -0.0000000  -0.0000000  -0.0000000  -0.0000000  -0.0000000  -0.0000000  -0.0000000  -0.0000000  -0.0000000
 NQMom=    0.0000000   0.0000000   0.0000000   0.0000000   0.0000000   0.0000000   0.0000000   2.0440000   2.0440000   0.0000000
 NMagM=    0.0000000   0.0000000   0.0000000   0.0000000   0.0000000   0.0000000   0.0000000   0.4037610   0.4037610   0.0000000
 AtZNuc=   6.0000000   6.0000000   6.0000000   6.0000000   6.0000000   6.0000000   6.0000000   7.0000000   7.0000000  16.0000000

  Atom        11          12          13          14          15          16          17          18          19          20
 IAtWgt=          16          16           1           1           1           1           1           1           1           1
 AtmWgt=  15.9949146  15.9949146   1.0078250   1.0078250   1.0078250   1.0078250   1.0078250   1.0078250   1.0078250   1.0078250
 NucSpn=           0           0           1           1           1           1           1           1           1           1
 AtZEff=  -0.0000000  -0.0000000  -0.0000000  -0.0000000  -0.0000000  -0.0000000  -0.0000000  -0.0000000  -0.0000000  -0.0000000
 NQMom=    0.0000000   0.0000000   0.0000000   0.0000000   0.0000000   0.0000000   0.0000000   0.0000000   0.0000000   0.0000000
 NMagM=    0.0000000   0.0000000   2.7928460   2.7928460   2.7928460   2.7928460   2.7928460   2.7928460   2.7928460   2.7928460
 AtZNuc=   8.0000000   8.0000000   1.0000000   1.0000000   1.0000000   1.0000000   1.0000000   1.0000000   1.0000000   1.0000000
 Leave Link  101 at Fri Aug  3 01:14:46 2018, MaxMem=  1073741824 cpu:               2.9 elap:               0.2
 (Enter /shared/apps/gaussian/gaussian-16/g16/l103.exe)

 GradGradGradGradGradGradGradGradGradGradGradGradGradGradGradGradGradGrad
 Berny optimization.
 Initialization pass.
                           ----------------------------
                           !    Initial Parameters    !
                           ! (Angstroms and Degrees)  !
 --------------------------                            --------------------------
 ! Name  Definition              Value          Derivative Info.                !
 --------------------------------------------------------------------------------
 ! R1    R(1,2)                  1.4775         estimate D2E/DX2                !
 ! R2    R(1,13)                 1.0977         estimate D2E/DX2                !
 ! R3    R(1,14)                 1.0979         estimate D2E/DX2                !
 ! R4    R(1,15)                 1.0933         estimate D2E/DX2                !
 ! R5    R(2,3)                  1.3381         estimate D2E/DX2                !
 ! R6    R(2,10)                 1.7953         estimate D2E/DX2                !
 ! R7    R(3,4)                  1.47           estimate D2E/DX2                !
 ! R8    R(3,16)                 1.0868         estimate D2E/DX2                !
 ! R9    R(4,5)                  1.3431         estimate D2E/DX2                !
 ! R10   R(4,17)                 1.0869         estimate D2E/DX2                !
 ! R11   R(5,6)                  1.4609         estimate D2E/DX2                !
 ! R12   R(5,10)                 1.7998         estimate D2E/DX2                !
 ! R13   R(6,7)                  1.4966         estimate D2E/DX2                !
 ! R14   R(6,8)                  1.4758         estimate D2E/DX2                !
 ! R15   R(6,9)                  1.4758         estimate D2E/DX2                !
 ! R16   R(7,18)                 1.0963         estimate D2E/DX2                !
 ! R17   R(7,19)                 1.0933         estimate D2E/DX2                !
 ! R18   R(7,20)                 1.096          estimate D2E/DX2                !
 ! R19   R(8,9)                  1.226          estimate D2E/DX2                !
 ! R20   R(10,11)                1.4627         estimate D2E/DX2                !
 ! R21   R(10,12)                1.4622         estimate D2E/DX2                !
 ! A1    A(2,1,13)             110.6416         estimate D2E/DX2                !
 ! A2    A(2,1,14)             110.583          estimate D2E/DX2                !
 ! A3    A(2,1,15)             110.7654         estimate D2E/DX2                !
 ! A4    A(13,1,14)            107.1786         estimate D2E/DX2                !
 ! A5    A(13,1,15)            108.7899         estimate D2E/DX2                !
 ! A6    A(14,1,15)            108.7833         estimate D2E/DX2                !
 ! A7    A(1,2,3)              133.6558         estimate D2E/DX2                !
 ! A8    A(1,2,10)             118.1437         estimate D2E/DX2                !
 ! A9    A(3,2,10)             108.2005         estimate D2E/DX2                !
 ! A10   A(2,3,4)              115.3403         estimate D2E/DX2                !
 ! A11   A(2,3,16)             123.0561         estimate D2E/DX2                !
 ! A12   A(4,3,16)             121.6036         estimate D2E/DX2                !
 ! A13   A(3,4,5)              115.1988         estimate D2E/DX2                !
 ! A14   A(3,4,17)             121.7288         estimate D2E/DX2                !
 ! A15   A(5,4,17)             123.0724         estimate D2E/DX2                !
 ! A16   A(4,5,6)              130.3754         estimate D2E/DX2                !
 ! A17   A(4,5,10)             107.9478         estimate D2E/DX2                !
 ! A18   A(6,5,10)             121.6767         estimate D2E/DX2                !
 ! A19   A(5,6,7)              120.9928         estimate D2E/DX2                !
 ! A20   A(5,6,8)              114.3366         estimate D2E/DX2                !
 ! A21   A(5,6,9)              114.3366         estimate D2E/DX2                !
 ! A22   A(7,6,8)              118.8798         estimate D2E/DX2                !
 ! A23   A(7,6,9)              118.8798         estimate D2E/DX2                !
 ! A24   A(6,7,18)             110.916          estimate D2E/DX2                !
 ! A25   A(6,7,19)             109.8588         estimate D2E/DX2                !
 ! A26   A(6,7,20)             110.9781         estimate D2E/DX2                !
 ! A27   A(18,7,19)            108.4433         estimate D2E/DX2                !
 ! A28   A(18,7,20)            108.1216         estimate D2E/DX2                !
 ! A29   A(19,7,20)            108.4418         estimate D2E/DX2                !
 ! A30   A(2,10,5)              93.3125         estimate D2E/DX2                !
 ! A31   A(2,10,11)            110.0045         estimate D2E/DX2                !
 ! A32   A(2,10,12)            109.9808         estimate D2E/DX2                !
 ! A33   A(5,10,11)            110.5077         estimate D2E/DX2                !
 ! A34   A(5,10,12)            110.4887         estimate D2E/DX2                !
 ! A35   A(11,10,12)           119.4451         estimate D2E/DX2                !
 ! D1    D(13,1,2,3)           120.8387         estimate D2E/DX2                !
 ! D2    D(13,1,2,10)          -59.1613         estimate D2E/DX2                !
 ! D3    D(14,1,2,3)          -120.5673         estimate D2E/DX2                !
 ! D4    D(14,1,2,10)           59.4327         estimate D2E/DX2                !
 ! D5    D(15,1,2,3)             0.1121         estimate D2E/DX2                !
 ! D6    D(15,1,2,10)         -179.8879         estimate D2E/DX2                !
 ! D7    D(1,2,3,4)            180.0            estimate D2E/DX2                !
 ! D8    D(1,2,3,16)             0.0            estimate D2E/DX2                !
 ! D9    D(10,2,3,4)             0.0            estimate D2E/DX2                !
 ! D10   D(10,2,3,16)          180.0            estimate D2E/DX2                !
 ! D11   D(1,2,10,5)           180.0            estimate D2E/DX2                !
 ! D12   D(1,2,10,11)          -66.7638         estimate D2E/DX2                !
 ! D13   D(1,2,10,12)           66.7896         estimate D2E/DX2                !
 ! D14   D(3,2,10,5)             0.0            estimate D2E/DX2                !
 ! D15   D(3,2,10,11)          113.2362         estimate D2E/DX2                !
 ! D16   D(3,2,10,12)         -113.2104         estimate D2E/DX2                !
 ! D17   D(2,3,4,5)              0.0            estimate D2E/DX2                !
 ! D18   D(2,3,4,17)           180.0            estimate D2E/DX2                !
 ! D19   D(16,3,4,5)           180.0            estimate D2E/DX2                !
 ! D20   D(16,3,4,17)            0.0            estimate D2E/DX2                !
 ! D21   D(3,4,5,6)            180.0            estimate D2E/DX2                !
 ! D22   D(3,4,5,10)             0.0            estimate D2E/DX2                !
 ! D23   D(17,4,5,6)             0.0            estimate D2E/DX2                !
 ! D24   D(17,4,5,10)          180.0            estimate D2E/DX2                !
 ! D25   D(4,5,6,7)            180.0            estimate D2E/DX2                !
 ! D26   D(4,5,6,8)             27.1217         estimate D2E/DX2                !
 ! D27   D(4,5,6,9)            -27.1217         estimate D2E/DX2                !
 ! D28   D(10,5,6,7)             0.0            estimate D2E/DX2                !
 ! D29   D(10,5,6,8)          -152.8783         estimate D2E/DX2                !
 ! D30   D(10,5,6,9)           152.8783         estimate D2E/DX2                !
 ! D31   D(4,5,10,2)             0.0            estimate D2E/DX2                !
 ! D32   D(4,5,10,11)         -112.7991         estimate D2E/DX2                !
 ! D33   D(4,5,10,12)          112.7691         estimate D2E/DX2                !
 ! D34   D(6,5,10,2)           180.0            estimate D2E/DX2                !
 ! D35   D(6,5,10,11)           67.2009         estimate D2E/DX2                !
 ! D36   D(6,5,10,12)          -67.2309         estimate D2E/DX2                !
 ! D37   D(5,6,7,18)           -60.1232         estimate D2E/DX2                !
 ! D38   D(5,6,7,19)           180.0            estimate D2E/DX2                !
 ! D39   D(5,6,7,20)            60.0856         estimate D2E/DX2                !
 ! D40   D(8,6,7,18)            91.5586         estimate D2E/DX2                !
 ! D41   D(8,6,7,19)           -28.3182         estimate D2E/DX2                !
 ! D42   D(8,6,7,20)          -148.2326         estimate D2E/DX2                !
 ! D43   D(9,6,7,18)           148.1949         estimate D2E/DX2                !
 ! D44   D(9,6,7,19)            28.3182         estimate D2E/DX2                !
 ! D45   D(9,6,7,20)           -91.5963         estimate D2E/DX2                !
 --------------------------------------------------------------------------------
 Trust Radius=3.00D-01 FncErr=1.00D-07 GrdErr=1.00D-06 EigMax=2.50D+02 EigMin=1.00D-04
 Number of steps in this run=    111 maximum allowed number of steps=    120.
 GradGradGradGradGradGradGradGradGradGradGradGradGradGradGradGradGradGrad

 Leave Link  103 at Fri Aug  3 01:14:47 2018, MaxMem=  1073741824 cpu:               1.8 elap:               0.5
 (Enter /shared/apps/gaussian/gaussian-16/g16/l202.exe)
                          Input orientation:                          
 ---------------------------------------------------------------------
 Center     Atomic      Atomic             Coordinates (Angstroms)
 Number     Number       Type             X           Y           Z
 ---------------------------------------------------------------------
      1          6           0       -3.422000    0.294000    0.000000
      2          6           0       -1.989000    0.654000    0.000000
      3          6           0       -1.329000    1.818000    0.000000
      4          6           0        0.137000    1.710000    0.000000
      5          6           0        0.618000    0.456000    0.000000
      6          6           0        1.996000   -0.029000    0.000000
      7          6           0        2.297000   -1.495000    0.000000
      8          7           0        2.967000    0.898000    0.613000
      9          7           0        2.967000    0.898000   -0.613000
     10         16           0       -0.782000   -0.675000    0.000000
     11          8           0       -0.847000   -1.410000    1.263000
     12          8           0       -0.847000   -1.409000   -1.263000
     13          1           0       -3.669000   -0.311000   -0.882000
     14          1           0       -3.669000   -0.307000    0.885000
     15          1           0       -4.047000    1.191000   -0.002000
     16          1           0       -1.829000    2.783000    0.000000
     17          1           0        0.775000    2.590000    0.000000
     18          1           0        1.876000   -1.981000    0.888000
     19          1           0        3.379000   -1.652000    0.000000
     20          1           0        1.876000   -1.982000   -0.887000
 ---------------------------------------------------------------------
                    Distance matrix (angstroms):
                    1          2          3          4          5
     1  C    0.000000
     2  C    1.477528   0.000000
     3  C    2.589059   1.338094   0.000000
     4  C    3.830344   2.373818   1.469973   0.000000
     5  C    4.043247   2.614508   2.376100   1.343085   0.000000
     6  C    5.427619   4.043107   3.803555   2.545585   1.460859
     7  C    5.992285   4.794580   4.911603   3.864922   2.573993
     8  N    6.446697   4.999724   4.435965   3.007327   2.467577
     9  N    6.446697   4.999724   4.435965   3.007327   2.467577
    10  S    2.812216   1.795297   2.552304   2.555932   1.799767
    11  O    3.336077   2.675711   3.499640   3.506825   2.687629
    12  O    3.335566   2.674940   3.498717   3.505936   2.686935
    13  H    1.097706   2.128744   3.284230   4.398636   4.443488
    14  H    1.097923   2.128179   3.282446   4.397403   4.443395
    15  H    1.093269   2.126908   2.789383   4.216067   4.722547
    16  H    2.955126   2.135004   1.086842   2.239751   3.376794
    17  H    4.783976   3.374580   2.241160   1.086943   2.139768
    18  H    5.833779   4.761302   5.049056   4.175661   2.882720
    19  H    7.073932   5.842351   5.848604   4.670504   3.473728
    20  H    5.834017   4.761669   5.049633   4.176333   2.883258
                    6          7          8          9         10
     6  C    0.000000
     7  C    1.496582   0.000000
     8  N    1.475784   2.559515   0.000000
     9  N    1.475784   2.559515   1.226000   0.000000
    10  S    2.852122   3.186321   4.111581   4.111581   0.000000
    11  O    3.403671   3.389267   4.505104   4.836614   1.462744
    12  O    3.403266   3.389292   4.836137   4.504592   1.462241
    13  H    5.740181   6.145969   6.908922   6.750595   3.040590
    14  H    5.740447   6.147172   6.750000   6.908873   3.041943
    15  H    6.164921   6.889190   7.047004   7.046656   3.760610
    16  H    4.747417   5.943497   5.189471   5.189471   3.613028
    17  H    2.889637   4.359324   2.836106   2.836106   3.617247
    18  H    2.147847   1.096349   3.091043   3.425189   3.091787
    19  H    2.132327   1.093331   2.654809   2.654809   4.274161
    20  H    2.148343   1.095983   3.425592   3.091886   3.091922
                   11         12         13         14         15
    11  O    0.000000
    12  O    2.526000   0.000000
    13  H    3.711133   3.051958   0.000000
    14  H    3.053388   3.713757   1.767005   0.000000
    15  H    4.313401   4.311626   1.781373   1.781476   0.000000
    16  H    4.487844   4.486910   3.706260   3.703637   2.730200
    17  H    4.497338   4.496449   5.379857   5.378194   5.020845
    18  H    2.807382   3.516918   6.055479   5.792177   6.777582
    19  H    4.417331   4.417385   7.228451   7.229561   7.951612
    20  H    3.516307   2.807923   5.791312   6.057445   6.777395
                   16         17         18         19         20
    16  H    0.000000
    17  H    2.611142   0.000000
    18  H    6.100104   4.784850   0.000000
    19  H    6.840504   4.977487   1.776455   0.000000
    20  H    6.100739   4.785620   1.775000   1.776141   0.000000
 Stoichiometry    C7H8N2O2S(1+,2)
 Framework group  C1[X(C7H8N2O2S)]
 Deg. of freedom    54
 Full point group                 C1      NOp   1
 Largest Abelian subgroup         C1      NOp   1
 Largest concise Abelian subgroup C1      NOp   1
                         Standard orientation:                         
 ---------------------------------------------------------------------
 Center     Atomic      Atomic             Coordinates (Angstroms)
 Number     Number       Type             X           Y           Z
 ---------------------------------------------------------------------
      1          6           0       -3.422142    0.294057   -0.000021
      2          6           0       -1.989137    0.654038   -0.000021
      3          6           0       -1.329121    1.818029   -0.000021
      4          6           0        0.136877    1.710009   -0.000021
      5          6           0        0.617860    0.456002   -0.000021
      6          6           0        1.995854   -0.029017   -0.000021
      7          6           0        2.296834   -1.495021   -0.000021
      8          7           0        2.966866    0.897970    0.612979
      9          7           0        2.966866    0.897970   -0.613021
     10         16           0       -0.782155   -0.674979   -0.000021
     11          8           0       -0.847165   -1.409978    1.262979
     12          8           0       -0.847165   -1.408978   -1.263021
     13          1           0       -3.669150   -0.310940   -0.882021
     14          1           0       -3.669150   -0.306940    0.884979
     15          1           0       -4.047130    1.191066   -0.002021
     16          1           0       -1.829108    2.783035   -0.000021
     17          1           0        0.774889    2.590000   -0.000021
     18          1           0        1.875827   -1.981015    0.887979
     19          1           0        3.378832   -1.652036   -0.000021
     20          1           0        1.875827   -1.982015   -0.887021
 ---------------------------------------------------------------------
 Rotational constants (GHZ):           1.6748550           0.6777132           0.5505044
 Leave Link  202 at Fri Aug  3 01:14:47 2018, MaxMem=  1073741824 cpu:               0.1 elap:               0.0
 (Enter /shared/apps/gaussian/gaussian-16/g16/l301.exe)
 Standard basis: 6-31+G(d,p) (6D, 7F)
 Ernie: Thresh=  0.10000D-02 Tol=  0.10000D-05 Strict=F.
 There are   272 symmetry adapted cartesian basis functions of A   symmetry.
 There are   272 symmetry adapted basis functions of A   symmetry.
   272 basis functions,   464 primitive gaussians,   272 cartesian basis functions
    48 alpha electrons       47 beta electrons
       nuclear repulsion energy       834.5705117183 Hartrees.
 IExCor= 4235 DFT=T Ex+Corr=M06 ExCW=0 ScaHFX=  0.270000
 ScaDFX=  1.000000  1.000000  1.000000  1.000000 ScalE2=  1.000000  1.000000
 IRadAn=      5 IRanWt=     -1 IRanGd=            0 ICorTp=0 IEmpDi=  4
 NAtoms=   20 NActive=   20 NUniq=   20 SFac= 1.00D+00 NAtFMM=   60 NAOKFM=F Big=F
 Integral buffers will be    131072 words long.
 Raffenetti 2 integral format.
 Two-electron integral symmetry is turned on.
 Leave Link  301 at Fri Aug  3 01:14:47 2018, MaxMem=  1073741824 cpu:               0.6 elap:               0.1
 (Enter /shared/apps/gaussian/gaussian-16/g16/l302.exe)
 NPDir=0 NMtPBC=     1 NCelOv=     1 NCel=       1 NClECP=     1 NCelD=      1
         NCelK=      1 NCelE2=     1 NClLst=     1 CellRange=     0.0.
 One-electron integrals computed using PRISM.
 One-electron integral symmetry used in STVInt
 NBasis=   272 RedAO= T EigKep=  2.04D-06  NBF=   272
 NBsUse=   272 1.00D-06 EigRej= -1.00D+00 NBFU=   272
 Precomputing XC quadrature grid using
 IXCGrd= 4 IRadAn=           5 IRanWt=          -1 IRanGd=           0 AccXCQ= 0.00D+00.
 Generated NRdTot=       0 NPtTot=           0 NUsed=           0 NTot=          32
 NSgBfM=   271   271   271   271   271 MxSgAt=    20 MxSgA2=    20.
 Leave Link  302 at Fri Aug  3 01:14:48 2018, MaxMem=  1073741824 cpu:               6.9 elap:               0.5
 (Enter /shared/apps/gaussian/gaussian-16/g16/l303.exe)
 DipDrv:  MaxL=1.
 Leave Link  303 at Fri Aug  3 01:14:48 2018, MaxMem=  1073741824 cpu:               1.1 elap:               0.1
 (Enter /shared/apps/gaussian/gaussian-16/g16/l401.exe)
 ExpMin= 4.05D-02 ExpMax= 2.19D+04 ExpMxC= 3.30D+03 IAcc=3 IRadAn=         5 AccDes= 0.00D+00
 Harris functional with IExCor= 1009 and IRadAn=       5 diagonalized for initial guess.
 HarFok:  IExCor= 1009 AccDes= 0.00D+00 IRadAn=         5 IDoV= 1 UseB2=F ITyADJ=14
 ICtDFT=  3500011 ScaDFX=  1.000000  1.000000  1.000000  1.000000
 FoFCou: FMM=F IPFlag=           0 FMFlag=      100000 FMFlg1=           0
         NFxFlg=           0 DoJE=T BraDBF=F KetDBF=T FulRan=T
         wScrn=  0.000000 ICntrl=       500 IOpCl=  0 I1Cent=   200000004 NGrid=           0
         NMat0=    1 NMatS0=      1 NMatT0=    0 NMatD0=    1 NMtDS0=    0 NMtDT0=    0
 Petite list used in FoFCou.
 Harris En= -928.650719819162    
 JPrj=0 DoOrth=F DoCkMO=F.
 Initial guess <Sx>= 0.0000 <Sy>= 0.0000 <Sz>= 0.5000 <S**2>= 0.7500 S= 0.5000
 Leave Link  401 at Fri Aug  3 01:14:49 2018, MaxMem=  1073741824 cpu:              23.2 elap:               1.5
 (Enter /shared/apps/gaussian/gaussian-16/g16/l502.exe)
 Integral symmetry usage will be decided dynamically.
 UHF open shell SCF:
 Using DIIS extrapolation, IDIIS=  1040.
 NGot=  1073741824 LenX=  1073586723 LenY=  1073512298
 Requested convergence on RMS density matrix=1.00D-08 within 128 cycles.
 Requested convergence on MAX density matrix=1.00D-06.
 Requested convergence on             energy=1.00D-06.
 No special actions if energy rises.
 Fock matrices will be formed incrementally for  20 cycles.

 Cycle   1  Pass 1  IDiag  1:
 FoFJK:  IHMeth= 1 ICntrl=       0 DoSepK=F KAlg= 0 I1Cent=           0 FoldK=F
 IRaf= 910000000 NMat=       1 IRICut=       1 DoRegI=T DoRafI=F ISym2E= 0 IDoP0=0 IntGTp=1.
 FoFCou: FMM=F IPFlag=           0 FMFlag=      100000 FMFlg1=           0
         NFxFlg=           0 DoJE=F BraDBF=F KetDBF=F FulRan=T
         wScrn=  0.000000 ICntrl=         0 IOpCl=  1 I1Cent=           0 NGrid=           0
         NMat0=    1 NMatS0=      1 NMatT0=    0 NMatD0=    1 NMtDS0=    0 NMtDT0=    0
 Symmetry not used in FoFCou.
 E= -928.486086183570    
 DIIS: error= 2.79D-02 at cycle   1 NSaved=   1.
 NSaved= 1 IEnMin= 1 EnMin= -928.486086183570     IErMin= 1 ErrMin= 2.79D-02
 ErrMax= 2.79D-02  0.00D+00 EMaxC= 1.00D-01 BMatC= 1.75D+00 BMatP= 1.75D+00
 IDIUse=3 WtCom= 7.21D-01 WtEn= 2.79D-01
 Coeff-Com:  0.100D+01
 Coeff-En:   0.100D+01
 Coeff:      0.100D+01
 Gap=     0.248 Goal=   None    Shift=    0.000
 Gap=     0.049 Goal=   None    Shift=    0.000
 GapD=    0.049 DampG=0.250 DampE=0.500 DampFc=0.2500 IDamp=-1.
 Damping current iteration by 2.50D-01
 RMSDP=6.67D-02 MaxDP=9.04D+00              OVMax= 9.04D-01

 Cycle   2  Pass 1  IDiag  1:
 RMSU=  1.19D-02    CP:  1.16D+00
 E= -928.482037088585     Delta-E=        0.004049094985 Rises=F Damp=T
 DIIS: error= 1.68D-02 at cycle   2 NSaved=   2.
 NSaved= 2 IEnMin= 1 EnMin= -928.486086183570     IErMin= 2 ErrMin= 1.68D-02
 ErrMax= 1.68D-02  0.00D+00 EMaxC= 1.00D-01 BMatC= 3.15D-01 BMatP= 1.75D+00
 IDIUse=3 WtCom= 8.32D-01 WtEn= 1.68D-01
 Coeff-Com: -0.919D-01 0.109D+01
 Coeff-En:   0.507D+00 0.493D+00
 Coeff:      0.867D-02 0.991D+00
 Gap=    -0.001 Goal=   None    Shift=    0.000
 Gap=     0.013 Goal=   None    Shift=    0.000
 RMSDP=1.56D-02 MaxDP=1.10D+00 DE= 4.05D-03 OVMax= 6.74D-01

 Cycle   3  Pass 1  IDiag  1:
 RMSU=  1.36D-02    CP:  1.06D+00  1.23D+00
 E= -928.601726414738     Delta-E=       -0.119689326153 Rises=F Damp=F
 DIIS: error= 2.59D-02 at cycle   3 NSaved=   3.
 NSaved= 3 IEnMin= 3 EnMin= -928.601726414738     IErMin= 2 ErrMin= 1.68D-02
 ErrMax= 2.59D-02  0.00D+00 EMaxC= 1.00D-01 BMatC= 8.45D-01 BMatP= 3.15D-01
 IDIUse=2 WtCom= 0.00D+00 WtEn= 1.00D+00
 EnCoef did     3 forward-backward iterations
 Coeff-En:   0.875D-01 0.319D+00 0.594D+00
 Coeff:      0.875D-01 0.319D+00 0.594D+00
 Gap=     0.281 Goal=   None    Shift=    0.000
 Gap=     0.053 Goal=   None    Shift=    0.000
 RMSDP=4.02D-02 MaxDP=5.11D+00 DE=-1.20D-01 OVMax= 6.31D-01

 Cycle   4  Pass 1  IDiag  1:
 RMSU=  8.93D-03    CP:  1.47D+00  3.00D+00  1.10D-01
 E= -928.466514054596     Delta-E=        0.135212360143 Rises=F Damp=F
 DIIS: error= 5.60D-02 at cycle   4 NSaved=   4.
 NSaved= 4 IEnMin= 3 EnMin= -928.601726414738     IErMin= 2 ErrMin= 1.68D-02
 ErrMax= 5.60D-02  0.00D+00 EMaxC= 1.00D-01 BMatC= 1.36D+00 BMatP= 3.15D-01
 IDIUse=2 WtCom= 0.00D+00 WtEn= 1.00D+00
 EnCoef did     2 forward-backward iterations
 Coeff-En:   0.843D-01 0.000D+00 0.516D+00 0.400D+00
 Coeff:      0.843D-01 0.000D+00 0.516D+00 0.400D+00
 Gap=     0.159 Goal=   None    Shift=    0.000
 Gap=     0.105 Goal=   None    Shift=    0.000
 RMSDP=1.92D-02 MaxDP=2.40D+00 DE= 1.35D-01 OVMax= 5.51D-01

 Cycle   5  Pass 1  IDiag  1:
 RMSU=  6.58D-03    CP:  1.27D+00  2.29D+00  4.45D-01  6.71D-01
 E= -928.864613515163     Delta-E=       -0.398099460567 Rises=F Damp=F
 DIIS: error= 6.67D-03 at cycle   5 NSaved=   5.
 NSaved= 5 IEnMin= 5 EnMin= -928.864613515163     IErMin= 5 ErrMin= 6.67D-03
 ErrMax= 6.67D-03  0.00D+00 EMaxC= 1.00D-01 BMatC= 4.26D-02 BMatP= 3.15D-01
 IDIUse=3 WtCom= 9.33D-01 WtEn= 6.67D-02
 Coeff-Com: -0.141D+00 0.175D+00 0.134D+00 0.183D-01 0.814D+00
 Coeff-En:   0.000D+00 0.000D+00 0.000D+00 0.000D+00 0.100D+01
 Coeff:     -0.132D+00 0.163D+00 0.125D+00 0.171D-01 0.826D+00
 Gap=     0.162 Goal=   None    Shift=    0.000
 Gap=     0.103 Goal=   None    Shift=    0.000
 RMSDP=6.52D-03 MaxDP=8.12D-01 DE=-3.98D-01 OVMax= 1.10D-01

 Cycle   6  Pass 1  IDiag  1:
 RMSU=  3.49D-03    CP:  1.32D+00  2.61D+00  4.38D-01  6.95D-01  1.13D+00
 E= -928.871089603944     Delta-E=       -0.006476088782 Rises=F Damp=F
 DIIS: error= 4.80D-03 at cycle   6 NSaved=   6.
 NSaved= 6 IEnMin= 6 EnMin= -928.871089603944     IErMin= 6 ErrMin= 4.80D-03
 ErrMax= 4.80D-03  0.00D+00 EMaxC= 1.00D-01 BMatC= 2.37D-02 BMatP= 4.26D-02
 IDIUse=3 WtCom= 9.52D-01 WtEn= 4.80D-02
 Coeff-Com: -0.130D+00 0.157D+00 0.619D-01-0.207D-01 0.584D+00 0.348D+00
 Coeff-En:   0.000D+00 0.000D+00 0.000D+00 0.000D+00 0.241D+00 0.759D+00
 Coeff:     -0.124D+00 0.150D+00 0.589D-01-0.197D-01 0.568D+00 0.368D+00
 Gap=     0.175 Goal=   None    Shift=    0.000
 Gap=     0.101 Goal=   None    Shift=    0.000
 RMSDP=1.76D-03 MaxDP=1.38D-01 DE=-6.48D-03 OVMax= 4.77D-02

 Cycle   7  Pass 1  IDiag  1:
 RMSU=  7.37D-04    CP:  1.32D+00  2.59D+00  4.60D-01  6.74D-01  1.28D+00
                    CP:  7.29D-01
 E= -928.876190983929     Delta-E=       -0.005101379984 Rises=F Damp=F
 DIIS: error= 2.59D-03 at cycle   7 NSaved=   7.
 NSaved= 7 IEnMin= 7 EnMin= -928.876190983929     IErMin= 7 ErrMin= 2.59D-03
 ErrMax= 2.59D-03  0.00D+00 EMaxC= 1.00D-01 BMatC= 2.41D-03 BMatP= 2.37D-02
 IDIUse=3 WtCom= 9.74D-01 WtEn= 2.59D-02
 Coeff-Com: -0.575D-01 0.795D-01 0.753D-03-0.785D-02 0.154D+00 0.802D-01
 Coeff-Com:  0.751D+00
 Coeff-En:   0.000D+00 0.000D+00 0.000D+00 0.000D+00 0.000D+00 0.000D+00
 Coeff-En:   0.100D+01
 Coeff:     -0.560D-01 0.775D-01 0.734D-03-0.764D-02 0.150D+00 0.781D-01
 Coeff:      0.757D+00
 Gap=     0.171 Goal=   None    Shift=    0.000
 Gap=     0.104 Goal=   None    Shift=    0.000
 RMSDP=1.37D-03 MaxDP=1.82D-01 DE=-5.10D-03 OVMax= 3.44D-02

 Cycle   8  Pass 1  IDiag  1:
 RMSU=  3.44D-04    CP:  1.33D+00  2.66D+00  4.53D-01  6.91D-01  1.33D+00
                    CP:  7.43D-01  1.12D+00
 E= -928.877172490424     Delta-E=       -0.000981506496 Rises=F Damp=F
 DIIS: error= 1.01D-03 at cycle   8 NSaved=   8.
 NSaved= 8 IEnMin= 8 EnMin= -928.877172490424     IErMin= 8 ErrMin= 1.01D-03
 ErrMax= 1.01D-03  0.00D+00 EMaxC= 1.00D-01 BMatC= 8.48D-04 BMatP= 2.41D-03
 IDIUse=3 WtCom= 9.90D-01 WtEn= 1.01D-02
 Coeff-Com: -0.135D-02 0.118D-01-0.207D-01 0.302D-02-0.943D-01-0.139D+00
 Coeff-Com:  0.404D+00 0.837D+00
 Coeff-En:   0.000D+00 0.000D+00 0.000D+00 0.000D+00 0.000D+00 0.000D+00
 Coeff-En:   0.000D+00 0.100D+01
 Coeff:     -0.133D-02 0.116D-01-0.205D-01 0.299D-02-0.933D-01-0.137D+00
 Coeff:      0.400D+00 0.838D+00
 Gap=     0.172 Goal=   None    Shift=    0.000
 Gap=     0.105 Goal=   None    Shift=    0.000
 RMSDP=7.67D-04 MaxDP=7.23D-02 DE=-9.82D-04 OVMax= 2.59D-02

 Cycle   9  Pass 1  IDiag  1:
 RMSU=  2.03D-04    CP:  1.33D+00  2.69D+00  4.47D-01  6.91D-01  1.41D+00
                    CP:  7.57D-01  1.46D+00  1.37D+00
 E= -928.877569045169     Delta-E=       -0.000396554745 Rises=F Damp=F
 DIIS: error= 2.65D-04 at cycle   9 NSaved=   9.
 NSaved= 9 IEnMin= 9 EnMin= -928.877569045169     IErMin= 9 ErrMin= 2.65D-04
 ErrMax= 2.65D-04  0.00D+00 EMaxC= 1.00D-01 BMatC= 1.12D-04 BMatP= 8.48D-04
 IDIUse=3 WtCom= 9.97D-01 WtEn= 2.65D-03
 Coeff-Com:  0.782D-02-0.618D-02 0.487D-02-0.100D-03-0.303D-01-0.839D-01
 Coeff-Com: -0.186D+00 0.306D+00 0.988D+00
 Coeff-En:   0.000D+00 0.000D+00 0.000D+00 0.000D+00 0.000D+00 0.000D+00
 Coeff-En:   0.000D+00 0.000D+00 0.100D+01
 Coeff:      0.780D-02-0.616D-02 0.485D-02-0.100D-03-0.302D-01-0.837D-01
 Coeff:     -0.185D+00 0.305D+00 0.988D+00
 Gap=     0.172 Goal=   None    Shift=    0.000
 Gap=     0.106 Goal=   None    Shift=    0.000
 RMSDP=4.39D-04 MaxDP=5.19D-02 DE=-3.97D-04 OVMax= 1.64D-02

 Cycle  10  Pass 1  IDiag  1:
 RMSU=  1.16D-04    CP:  1.33D+00  2.67D+00  4.51D-01  6.83D-01  1.43D+00
                    CP:  7.35D-01  1.56D+00  1.66D+00  1.48D+00
 E= -928.877634737695     Delta-E=       -0.000065692526 Rises=F Damp=F
 DIIS: error= 2.01D-04 at cycle  10 NSaved=  10.
 NSaved=10 IEnMin=10 EnMin= -928.877634737695     IErMin=10 ErrMin= 2.01D-04
 ErrMax= 2.01D-04  0.00D+00 EMaxC= 1.00D-01 BMatC= 7.19D-05 BMatP= 1.12D-04
 IDIUse=3 WtCom= 9.98D-01 WtEn= 2.01D-03
 Coeff-Com:  0.612D-02-0.676D-02 0.784D-02-0.843D-03-0.272D-02-0.410D-01
 Coeff-Com: -0.148D+00 0.522D-01 0.554D+00 0.579D+00
 Coeff-En:   0.000D+00 0.000D+00 0.000D+00 0.000D+00 0.000D+00 0.000D+00
 Coeff-En:   0.000D+00 0.000D+00 0.000D+00 0.100D+01
 Coeff:      0.611D-02-0.675D-02 0.783D-02-0.841D-03-0.272D-02-0.409D-01
 Coeff:     -0.147D+00 0.521D-01 0.553D+00 0.580D+00
 Gap=     0.171 Goal=   None    Shift=    0.000
 Gap=     0.106 Goal=   None    Shift=    0.000
 RMSDP=2.70D-04 MaxDP=3.53D-02 DE=-6.57D-05 OVMax= 3.64D-03

 Cycle  11  Pass 1  IDiag  1:
 RMSU=  7.24D-05    CP:  1.33D+00  2.66D+00  4.54D-01  6.77D-01  1.44D+00
                    CP:  7.24D-01  1.58D+00  1.75D+00  1.74D+00  1.09D+00
 E= -928.877650125108     Delta-E=       -0.000015387413 Rises=F Damp=F
 DIIS: error= 1.79D-04 at cycle  11 NSaved=  11.
 NSaved=11 IEnMin=11 EnMin= -928.877650125108     IErMin=11 ErrMin= 1.79D-04
 ErrMax= 1.79D-04  0.00D+00 EMaxC= 1.00D-01 BMatC= 3.44D-05 BMatP= 7.19D-05
 IDIUse=3 WtCom= 9.98D-01 WtEn= 1.79D-03
 Coeff-Com:  0.352D-02-0.526D-02 0.399D-02-0.524D-03 0.511D-02-0.989D-02
 Coeff-Com: -0.447D-02-0.604D-01-0.180D-01 0.370D+00 0.716D+00
 Coeff-En:   0.000D+00 0.000D+00 0.000D+00 0.000D+00 0.000D+00 0.000D+00
 Coeff-En:   0.000D+00 0.000D+00 0.000D+00 0.000D+00 0.100D+01
 Coeff:      0.351D-02-0.525D-02 0.398D-02-0.523D-03 0.510D-02-0.987D-02
 Coeff:     -0.447D-02-0.603D-01-0.180D-01 0.369D+00 0.717D+00
 Gap=     0.171 Goal=   None    Shift=    0.000
 Gap=     0.106 Goal=   None    Shift=    0.000
 RMSDP=2.22D-04 MaxDP=3.01D-02 DE=-1.54D-05 OVMax= 1.66D-03

 Cycle  12  Pass 1  IDiag  1:
 RMSU=  3.27D-05    CP:  1.32D+00  2.65D+00  4.57D-01  6.73D-01  1.44D+00
                    CP:  7.13D-01  1.59D+00  1.75D+00  1.91D+00  1.31D+00
                    CP:  1.34D+00
 E= -928.877659202922     Delta-E=       -0.000009077814 Rises=F Damp=F
 DIIS: error= 9.41D-05 at cycle  12 NSaved=  12.
 NSaved=12 IEnMin=12 EnMin= -928.877659202922     IErMin=12 ErrMin= 9.41D-05
 ErrMax= 9.41D-05  0.00D+00 EMaxC= 1.00D-01 BMatC= 1.14D-05 BMatP= 3.44D-05
 IDIUse=1 WtCom= 1.00D+00 WtEn= 0.00D+00
 Coeff-Com:  0.907D-03-0.196D-02-0.123D-03-0.952D-04 0.234D-02 0.278D-02
 Coeff-Com:  0.701D-01-0.367D-01-0.226D+00 0.202D-02 0.482D+00 0.704D+00
 Coeff:      0.907D-03-0.196D-02-0.123D-03-0.952D-04 0.234D-02 0.278D-02
 Coeff:      0.701D-01-0.367D-01-0.226D+00 0.202D-02 0.482D+00 0.704D+00
 Gap=     0.171 Goal=   None    Shift=    0.000
 Gap=     0.106 Goal=   None    Shift=    0.000
 RMSDP=1.41D-04 MaxDP=1.98D-02 DE=-9.08D-06 OVMax= 1.11D-03

 Cycle  13  Pass 1  IDiag  1:
 RMSU=  1.46D-05    CP:  1.32D+00  2.65D+00  4.58D-01  6.71D-01  1.44D+00
                    CP:  7.07D-01  1.59D+00  1.73D+00  1.95D+00  1.44D+00
                    CP:  1.52D+00  9.73D-01
 E= -928.877662759269     Delta-E=       -0.000003556346 Rises=F Damp=F
 DIIS: error= 4.10D-05 at cycle  13 NSaved=  13.
 NSaved=13 IEnMin=13 EnMin= -928.877662759269     IErMin=13 ErrMin= 4.10D-05
 ErrMax= 4.10D-05  0.00D+00 EMaxC= 1.00D-01 BMatC= 1.24D-06 BMatP= 1.14D-05
 IDIUse=1 WtCom= 1.00D+00 WtEn= 0.00D+00
 Coeff-Com:  0.293D-03-0.629D-03-0.725D-03 0.230D-04-0.589D-03 0.280D-02
 Coeff-Com:  0.451D-01-0.869D-02-0.139D+00-0.637D-01 0.167D+00 0.411D+00
 Coeff-Com:  0.588D+00
 Coeff:      0.293D-03-0.629D-03-0.725D-03 0.230D-04-0.589D-03 0.280D-02
 Coeff:      0.451D-01-0.869D-02-0.139D+00-0.637D-01 0.167D+00 0.411D+00
 Coeff:      0.588D+00
 Gap=     0.171 Goal=   None    Shift=    0.000
 Gap=     0.106 Goal=   None    Shift=    0.000
 RMSDP=4.91D-05 MaxDP=6.82D-03 DE=-3.56D-06 OVMax= 3.04D-04

 Cycle  14  Pass 1  IDiag  1:
 RMSU=  6.63D-06    CP:  1.32D+00  2.65D+00  4.59D-01  6.71D-01  1.44D+00
                    CP:  7.06D-01  1.59D+00  1.73D+00  1.98D+00  1.47D+00
                    CP:  1.63D+00  1.06D+00  8.16D-01
 E= -928.877663136045     Delta-E=       -0.000000376776 Rises=F Damp=F
 DIIS: error= 1.18D-05 at cycle  14 NSaved=  14.
 NSaved=14 IEnMin=14 EnMin= -928.877663136045     IErMin=14 ErrMin= 1.18D-05
 ErrMax= 1.18D-05  0.00D+00 EMaxC= 1.00D-01 BMatC= 1.60D-07 BMatP= 1.24D-06
 IDIUse=1 WtCom= 1.00D+00 WtEn= 0.00D+00
 Coeff-Com:  0.856D-04-0.110D-03-0.382D-03 0.274D-04-0.106D-02 0.815D-03
 Coeff-Com:  0.112D-01 0.505D-02-0.306D-01-0.350D-01-0.121D-02 0.948D-01
 Coeff-Com:  0.358D+00 0.598D+00
 Coeff:      0.856D-04-0.110D-03-0.382D-03 0.274D-04-0.106D-02 0.815D-03
 Coeff:      0.112D-01 0.505D-02-0.306D-01-0.350D-01-0.121D-02 0.948D-01
 Coeff:      0.358D+00 0.598D+00
 Gap=     0.171 Goal=   None    Shift=    0.000
 Gap=     0.106 Goal=   None    Shift=    0.000
 RMSDP=6.05D-06 MaxDP=4.82D-04 DE=-3.77D-07 OVMax= 1.27D-04

 Cycle  15  Pass 1  IDiag  1:
 RMSU=  3.43D-06    CP:  1.32D+00  2.65D+00  4.59D-01  6.71D-01  1.44D+00
                    CP:  7.06D-01  1.59D+00  1.72D+00  1.97D+00  1.48D+00
                    CP:  1.62D+00  1.06D+00  9.25D-01  7.17D-01
 E= -928.877663184359     Delta-E=       -0.000000048314 Rises=F Damp=F
 DIIS: error= 3.44D-06 at cycle  15 NSaved=  15.
 NSaved=15 IEnMin=15 EnMin= -928.877663184359     IErMin=15 ErrMin= 3.44D-06
 ErrMax= 3.44D-06  0.00D+00 EMaxC= 1.00D-01 BMatC= 2.82D-08 BMatP= 1.60D-07
 IDIUse=1 WtCom= 1.00D+00 WtEn= 0.00D+00
 Coeff-Com: -0.394D-04 0.107D-03-0.627D-04 0.419D-05-0.450D-03-0.393D-04
 Coeff-Com: -0.336D-02 0.450D-02 0.130D-01-0.410D-02-0.342D-01-0.358D-01
 Coeff-Com:  0.724D-01 0.328D+00 0.660D+00
 Coeff:     -0.394D-04 0.107D-03-0.627D-04 0.419D-05-0.450D-03-0.393D-04
 Coeff:     -0.336D-02 0.450D-02 0.130D-01-0.410D-02-0.342D-01-0.358D-01
 Coeff:      0.724D-01 0.328D+00 0.660D+00
 Gap=     0.171 Goal=   None    Shift=    0.000
 Gap=     0.106 Goal=   None    Shift=    0.000
 RMSDP=4.59D-06 MaxDP=6.02D-04 DE=-4.83D-08 OVMax= 7.80D-05

 Cycle  16  Pass 1  IDiag  1:
 RMSU=  1.51D-06    CP:  1.32D+00  2.65D+00  4.59D-01  6.71D-01  1.44D+00
                    CP:  7.06D-01  1.59D+00  1.72D+00  1.97D+00  1.48D+00
                    CP:  1.62D+00  1.08D+00  9.24D-01  8.29D-01  1.02D+00
 E= -928.877663192849     Delta-E=       -0.000000008490 Rises=F Damp=F
 DIIS: error= 3.22D-06 at cycle  16 NSaved=  16.
 NSaved=16 IEnMin=16 EnMin= -928.877663192849     IErMin=16 ErrMin= 3.22D-06
 ErrMax= 3.22D-06  0.00D+00 EMaxC= 1.00D-01 BMatC= 1.33D-08 BMatP= 2.82D-08
 IDIUse=1 WtCom= 1.00D+00 WtEn= 0.00D+00
 Coeff-Com: -0.574D-04 0.843D-04 0.280D-04 0.294D-05 0.498D-04-0.473D-04
 Coeff-Com: -0.428D-02 0.385D-03 0.128D-01 0.588D-02-0.167D-01-0.395D-01
 Coeff-Com: -0.418D-01 0.428D-01 0.386D+00 0.654D+00
 Coeff:     -0.574D-04 0.843D-04 0.280D-04 0.294D-05 0.498D-04-0.473D-04
 Coeff:     -0.428D-02 0.385D-03 0.128D-01 0.588D-02-0.167D-01-0.395D-01
 Coeff:     -0.418D-01 0.428D-01 0.386D+00 0.654D+00
 Gap=     0.171 Goal=   None    Shift=    0.000
 Gap=     0.106 Goal=   None    Shift=    0.000
 RMSDP=3.27D-06 MaxDP=4.99D-04 DE=-8.49D-09 OVMax= 3.98D-05

 Cycle  17  Pass 1  IDiag  1:
 RMSU=  8.40D-07    CP:  1.32D+00  2.65D+00  4.59D-01  6.71D-01  1.44D+00
                    CP:  7.06D-01  1.59D+00  1.73D+00  1.97D+00  1.48D+00
                    CP:  1.63D+00  1.08D+00  9.45D-01  8.43D-01  1.13D+00
                    CP:  1.05D+00
 E= -928.877663196868     Delta-E=       -0.000000004019 Rises=F Damp=F
 DIIS: error= 1.66D-06 at cycle  17 NSaved=  17.
 NSaved=17 IEnMin=17 EnMin= -928.877663196868     IErMin=17 ErrMin= 1.66D-06
 ErrMax= 1.66D-06  0.00D+00 EMaxC= 1.00D-01 BMatC= 5.45D-09 BMatP= 1.33D-08
 IDIUse=1 WtCom= 1.00D+00 WtEn= 0.00D+00
 Coeff-Com: -0.304D-04 0.126D-04 0.305D-04 0.528D-05 0.229D-03 0.351D-04
 Coeff-Com: -0.193D-02-0.156D-02 0.443D-02 0.574D-02 0.995D-03-0.141D-01
 Coeff-Com: -0.522D-01-0.806D-01 0.468D-01 0.475D+00 0.617D+00
 Coeff:     -0.304D-04 0.126D-04 0.305D-04 0.528D-05 0.229D-03 0.351D-04
 Coeff:     -0.193D-02-0.156D-02 0.443D-02 0.574D-02 0.995D-03-0.141D-01
 Coeff:     -0.522D-01-0.806D-01 0.468D-01 0.475D+00 0.617D+00
 Gap=     0.171 Goal=   None    Shift=    0.000
 Gap=     0.106 Goal=   None    Shift=    0.000
 RMSDP=3.44D-06 MaxDP=4.48D-04 DE=-4.02D-09 OVMax= 3.04D-05

 Cycle  18  Pass 1  IDiag  1:
 RMSU=  4.47D-07    CP:  1.32D+00  2.65D+00  4.59D-01  6.71D-01  1.44D+00
                    CP:  7.06D-01  1.59D+00  1.73D+00  1.97D+00  1.48D+00
                    CP:  1.63D+00  1.08D+00  9.47D-01  8.46D-01  1.21D+00
                    CP:  1.22D+00  9.59D-01
 E= -928.877663198982     Delta-E=       -0.000000002114 Rises=F Damp=F
 DIIS: error= 4.60D-07 at cycle  18 NSaved=  18.
 NSaved=18 IEnMin=18 EnMin= -928.877663198982     IErMin=18 ErrMin= 4.60D-07
 ErrMax= 4.60D-07  0.00D+00 EMaxC= 1.00D-01 BMatC= 4.31D-10 BMatP= 5.45D-09
 IDIUse=1 WtCom= 1.00D+00 WtEn= 0.00D+00
 Coeff-Com:  0.238D-05-0.115D-04 0.216D-05 0.419D-06 0.733D-04 0.656D-04
 Coeff-Com:  0.594D-03-0.682D-03-0.250D-02 0.390D-03 0.607D-02 0.709D-02
 Coeff-Com: -0.605D-02-0.407D-01-0.101D+00-0.268D-01 0.238D+00 0.926D+00
 Coeff:      0.238D-05-0.115D-04 0.216D-05 0.419D-06 0.733D-04 0.656D-04
 Coeff:      0.594D-03-0.682D-03-0.250D-02 0.390D-03 0.607D-02 0.709D-02
 Coeff:     -0.605D-02-0.407D-01-0.101D+00-0.268D-01 0.238D+00 0.926D+00
 Gap=     0.171 Goal=   None    Shift=    0.000
 Gap=     0.106 Goal=   None    Shift=    0.000
 RMSDP=1.01D-06 MaxDP=1.20D-04 DE=-2.11D-09 OVMax= 1.40D-05

 Cycle  19  Pass 1  IDiag  1:
 RMSU=  2.12D-07    CP:  1.32D+00  2.65D+00  4.59D-01  6.71D-01  1.44D+00
                    CP:  7.06D-01  1.59D+00  1.73D+00  1.97D+00  1.48D+00
                    CP:  1.63D+00  1.08D+00  9.47D-01  8.52D-01  1.22D+00
                    CP:  1.27D+00  1.06D+00  9.97D-01
 E= -928.877663199226     Delta-E=       -0.000000000244 Rises=F Damp=F
 DIIS: error= 2.95D-07 at cycle  19 NSaved=  19.
 NSaved=19 IEnMin=19 EnMin= -928.877663199226     IErMin=19 ErrMin= 2.95D-07
 ErrMax= 2.95D-07  0.00D+00 EMaxC= 1.00D-01 BMatC= 1.19D-10 BMatP= 4.31D-10
 IDIUse=1 WtCom= 1.00D+00 WtEn= 0.00D+00
 Coeff-Com:  0.397D-05-0.631D-05-0.220D-05-0.745D-06 0.124D-04 0.448D-04
 Coeff-Com:  0.496D-03-0.477D-04-0.168D-02-0.816D-03 0.215D-02 0.462D-02
 Coeff-Com:  0.436D-02-0.430D-02-0.473D-01-0.783D-01 0.171D-01 0.391D+00
 Coeff-Com:  0.713D+00
 Coeff:      0.397D-05-0.631D-05-0.220D-05-0.745D-06 0.124D-04 0.448D-04
 Coeff:      0.496D-03-0.477D-04-0.168D-02-0.816D-03 0.215D-02 0.462D-02
 Coeff:      0.436D-02-0.430D-02-0.473D-01-0.783D-01 0.171D-01 0.391D+00
 Coeff:      0.713D+00
 Gap=     0.171 Goal=   None    Shift=    0.000
 Gap=     0.106 Goal=   None    Shift=    0.000
 RMSDP=3.04D-07 MaxDP=3.79D-05 DE=-2.44D-10 OVMax= 4.89D-06

 Cycle  20  Pass 1  IDiag  1:
 RMSU=  7.49D-08    CP:  1.32D+00  2.65D+00  4.59D-01  6.71D-01  1.44D+00
                    CP:  7.06D-01  1.59D+00  1.73D+00  1.97D+00  1.48D+00
                    CP:  1.63D+00  1.08D+00  9.46D-01  8.52D-01  1.22D+00
                    CP:  1.25D+00  1.06D+00  1.09D+00  1.10D+00
 E= -928.877663199284     Delta-E=       -0.000000000058 Rises=F Damp=F
 DIIS: error= 1.40D-07 at cycle  20 NSaved=  20.
 NSaved=20 IEnMin=20 EnMin= -928.877663199284     IErMin=20 ErrMin= 1.40D-07
 ErrMax= 1.40D-07  0.00D+00 EMaxC= 1.00D-01 BMatC= 2.18D-11 BMatP= 1.19D-10
 IDIUse=1 WtCom= 1.00D+00 WtEn= 0.00D+00
 Coeff-Com:  0.453D-05-0.533D-05-0.130D-05-0.137D-06-0.196D-04-0.105D-04
 Coeff-Com:  0.356D-04 0.165D-03-0.307D-06-0.363D-03-0.381D-03 0.751D-04
 Coeff-Com:  0.184D-02 0.746D-02 0.493D-02-0.218D-01-0.383D-01-0.672D-01
 Coeff-Com:  0.184D+00 0.929D+00
 Coeff:      0.453D-05-0.533D-05-0.130D-05-0.137D-06-0.196D-04-0.105D-04
 Coeff:      0.356D-04 0.165D-03-0.307D-06-0.363D-03-0.381D-03 0.751D-04
 Coeff:      0.184D-02 0.746D-02 0.493D-02-0.218D-01-0.383D-01-0.672D-01
 Coeff:      0.184D+00 0.929D+00
 Gap=     0.171 Goal=   None    Shift=    0.000
 Gap=     0.106 Goal=   None    Shift=    0.000
 RMSDP=9.76D-08 MaxDP=1.09D-05 DE=-5.80D-11 OVMax= 3.56D-06

 Cycle  21  Pass 1  IDiag  1:
 Restarting incremental Fock formation.
 E= -928.877663199283     Delta-E=        0.000000000001 Rises=F Damp=F
 DIIS: error= 7.60D-08 at cycle  21 NSaved=  20.
 NSaved=20 IEnMin=19 EnMin= -928.877663199284     IErMin=20 ErrMin= 7.60D-08
 ErrMax= 7.60D-08  0.00D+00 EMaxC= 1.00D-01 BMatC= 7.46D-12 BMatP= 2.18D-11
 IDIUse=1 WtCom= 1.00D+00 WtEn= 0.00D+00
 Coeff-Com:  0.896D-06-0.106D-05 0.590D-06-0.627D-05-0.136D-04-0.828D-04
 Coeff-Com:  0.540D-04 0.286D-03 0.858D-04-0.281D-03-0.805D-03-0.127D-02
 Coeff-Com:  0.169D-02 0.863D-02 0.115D-01-0.157D-02-0.779D-01-0.177D+00
 Coeff-Com:  0.119D+00 0.112D+01
 Coeff:      0.896D-06-0.106D-05 0.590D-06-0.627D-05-0.136D-04-0.828D-04
 Coeff:      0.540D-04 0.286D-03 0.858D-04-0.281D-03-0.805D-03-0.127D-02
 Coeff:      0.169D-02 0.863D-02 0.115D-01-0.157D-02-0.779D-01-0.177D+00
 Coeff:      0.119D+00 0.112D+01
 Gap=     0.171 Goal=   None    Shift=    0.000
 Gap=     0.106 Goal=   None    Shift=    0.000
 RMSDP=9.84D-08 MaxDP=1.33D-05 DE= 6.82D-13 OVMax= 2.32D-06

 Cycle  22  Pass 1  IDiag  1:
 RMSU=  4.91D-08    CP:  1.00D+00
 E= -928.877663199310     Delta-E=       -0.000000000027 Rises=F Damp=F
 DIIS: error= 2.19D-08 at cycle  22 NSaved=  20.
 NSaved=20 IEnMin=20 EnMin= -928.877663199310     IErMin=20 ErrMin= 2.19D-08
 ErrMax= 2.19D-08  0.00D+00 EMaxC= 1.00D-01 BMatC= 5.63D-13 BMatP= 7.46D-12
 IDIUse=1 WtCom= 1.00D+00 WtEn= 0.00D+00
 Coeff-Com: -0.613D-07 0.388D-06 0.102D-05-0.324D-05-0.158D-04-0.110D-04
 Coeff-Com:  0.314D-04 0.684D-04 0.125D-03-0.688D-04-0.798D-03-0.887D-03
 Coeff-Com:  0.529D-03 0.521D-02 0.801D-02-0.305D-02-0.895D-01-0.119D+00
 Coeff-Com:  0.291D+00 0.909D+00
 Coeff:     -0.613D-07 0.388D-06 0.102D-05-0.324D-05-0.158D-04-0.110D-04
 Coeff:      0.314D-04 0.684D-04 0.125D-03-0.688D-04-0.798D-03-0.887D-03
 Coeff:      0.529D-03 0.521D-02 0.801D-02-0.305D-02-0.895D-01-0.119D+00
 Coeff:      0.291D+00 0.909D+00
 Gap=     0.171 Goal=   None    Shift=    0.000
 Gap=     0.106 Goal=   None    Shift=    0.000
 RMSDP=1.46D-08 MaxDP=1.63D-06 DE=-2.66D-11 OVMax= 9.24D-07

 Cycle  23  Pass 1  IDiag  1:
 RMSU=  1.36D-08    CP:  1.00D+00  9.96D-01
 E= -928.877663199308     Delta-E=        0.000000000002 Rises=F Damp=F
 DIIS: error= 1.01D-08 at cycle  23 NSaved=  20.
 NSaved=20 IEnMin=19 EnMin= -928.877663199310     IErMin=20 ErrMin= 1.01D-08
 ErrMax= 1.01D-08  0.00D+00 EMaxC= 1.00D-01 BMatC= 1.25D-13 BMatP= 5.63D-13
 IDIUse=1 WtCom= 1.00D+00 WtEn= 0.00D+00
 Coeff-Com:  0.701D-07 0.693D-06-0.201D-06 0.562D-05-0.628D-05-0.280D-04
 Coeff-Com:  0.439D-05 0.990D-04 0.115D-03-0.113D-03-0.392D-03-0.105D-02
 Coeff-Com: -0.673D-03 0.261D-02 0.102D-01-0.100D-01-0.527D-01-0.720D-01
 Coeff-Com:  0.387D+00 0.737D+00
 Coeff:      0.701D-07 0.693D-06-0.201D-06 0.562D-05-0.628D-05-0.280D-04
 Coeff:      0.439D-05 0.990D-04 0.115D-03-0.113D-03-0.392D-03-0.105D-02
 Coeff:     -0.673D-03 0.261D-02 0.102D-01-0.100D-01-0.527D-01-0.720D-01
 Coeff:      0.387D+00 0.737D+00
 Gap=     0.171 Goal=   None    Shift=    0.000
 Gap=     0.106 Goal=   None    Shift=    0.000
 RMSDP=9.47D-09 MaxDP=9.65D-07 DE= 1.59D-12 OVMax= 2.59D-07

 SCF Done:  E(UM06) =  -928.877663199     A.U. after   23 cycles
            NFock= 23  Conv=0.95D-08     -V/T= 2.0074
 <Sx>= 0.0000 <Sy>= 0.0000 <Sz>= 0.5000 <S**2>= 0.7589 S= 0.5044
 <L.S>= 0.000000000000E+00
 KE= 9.220562352835D+02 PE=-3.831654114547D+03 EE= 1.146149704346D+03
 Annihilation of the first spin contaminant:
 S**2 before annihilation     0.7589,   after     0.7500
 Leave Link  502 at Fri Aug  3 01:17:41 2018, MaxMem=  1073741824 cpu:            2748.4 elap:             172.1
 (Enter /shared/apps/gaussian/gaussian-16/g16/l601.exe)
 Copying SCF densities to generalized density rwf, IOpCl= 1 IROHF=0.

 **********************************************************************

            Population analysis using the SCF density.

 **********************************************************************

 Orbital symmetries:
 Alpha Orbitals:
       Occupied  (A) (A) (A) (A) (A) (A) (A) (A) (A) (A) (A) (A)
                 (A) (A) (A) (A) (A) (A) (A) (A) (A) (A) (A) (A)
                 (A) (A) (A) (A) (A) (A) (A) (A) (A) (A) (A) (A)
                 (A) (A) (A) (A) (A) (A) (A) (A) (A) (A) (A) (A)
       Virtual   (A) (A) (A) (A) (A) (A) (A) (A) (A) (A) (A) (A)
                 (A) (A) (A) (A) (A) (A) (A) (A) (A) (A) (A) (A)
                 (A) (A) (A) (A) (A) (A) (A) (A) (A) (A) (A) (A)
                 (A) (A) (A) (A) (A) (A) (A) (A) (A) (A) (A) (A)
                 (A) (A) (A) (A) (A) (A) (A) (A) (A) (A) (A) (A)
                 (A) (A) (A) (A) (A) (A) (A) (A) (A) (A) (A) (A)
                 (A) (A) (A) (A) (A) (A) (A) (A) (A) (A) (A) (A)
                 (A) (A) (A) (A) (A) (A) (A) (A) (A) (A) (A) (A)
                 (A) (A) (A) (A) (A) (A) (A) (A) (A) (A) (A) (A)
                 (A) (A) (A) (A) (A) (A) (A) (A) (A) (A) (A) (A)
                 (A) (A) (A) (A) (A) (A) (A) (A) (A) (A) (A) (A)
                 (A) (A) (A) (A) (A) (A) (A) (A) (A) (A) (A) (A)
                 (A) (A) (A) (A) (A) (A) (A) (A) (A) (A) (A) (A)
                 (A) (A) (A) (A) (A) (A) (A) (A) (A) (A) (A) (A)
                 (A) (A) (A) (A) (A) (A) (A) (A) (A) (A) (A) (A)
                 (A) (A) (A) (A) (A) (A) (A) (A) (A) (A) (A) (A)
                 (A) (A) (A) (A) (A) (A) (A) (A) (A) (A) (A) (A)
                 (A) (A) (A) (A) (A) (A) (A) (A) (A) (A) (A) (A)
                 (A) (A) (A) (A) (A) (A) (A) (A)
 Beta  Orbitals:
       Occupied  (A) (A) (A) (A) (A) (A) (A) (A) (A) (A) (A) (A)
                 (A) (A) (A) (A) (A) (A) (A) (A) (A) (A) (A) (A)
                 (A) (A) (A) (A) (A) (A) (A) (A) (A) (A) (A) (A)
                 (A) (A) (A) (A) (A) (A) (A) (A) (A) (A) (A)
       Virtual   (A) (A) (A) (A) (A) (A) (A) (A) (A) (A) (A) (A)
                 (A) (A) (A) (A) (A) (A) (A) (A) (A) (A) (A) (A)
                 (A) (A) (A) (A) (A) (A) (A) (A) (A) (A) (A) (A)
                 (A) (A) (A) (A) (A) (A) (A) (A) (A) (A) (A) (A)
                 (A) (A) (A) (A) (A) (A) (A) (A) (A) (A) (A) (A)
                 (A) (A) (A) (A) (A) (A) (A) (A) (A) (A) (A) (A)
                 (A) (A) (A) (A) (A) (A) (A) (A) (A) (A) (A) (A)
                 (A) (A) (A) (A) (A) (A) (A) (A) (A) (A) (A) (A)
                 (A) (A) (A) (A) (A) (A) (A) (A) (A) (A) (A) (A)
                 (A) (A) (A) (A) (A) (A) (A) (A) (A) (A) (A) (A)
                 (A) (A) (A) (A) (A) (A) (A) (A) (A) (A) (A) (A)
                 (A) (A) (A) (A) (A) (A) (A) (A) (A) (A) (A) (A)
                 (A) (A) (A) (A) (A) (A) (A) (A) (A) (A) (A) (A)
                 (A) (A) (A) (A) (A) (A) (A) (A) (A) (A) (A) (A)
                 (A) (A) (A) (A) (A) (A) (A) (A) (A) (A) (A) (A)
                 (A) (A) (A) (A) (A) (A) (A) (A) (A) (A) (A) (A)
                 (A) (A) (A) (A) (A) (A) (A) (A) (A) (A) (A) (A)
                 (A) (A) (A) (A) (A) (A) (A) (A) (A) (A) (A) (A)
                 (A) (A) (A) (A) (A) (A) (A) (A) (A)
 The electronic state is 2-A.
 Alpha  occ. eigenvalues --  -89.46647 -19.42616 -19.42614 -14.73181 -14.73115
 Alpha  occ. eigenvalues --  -10.56391 -10.53353 -10.53198 -10.52604 -10.50875
 Alpha  occ. eigenvalues --  -10.44610 -10.42839  -8.43694  -6.35413  -6.35368
 Alpha  occ. eigenvalues --   -6.35332  -1.38480  -1.32237  -1.21708  -1.11652
 Alpha  occ. eigenvalues --   -1.02944  -0.97171  -0.92468  -0.90586  -0.85094
 Alpha  occ. eigenvalues --   -0.85058  -0.79977  -0.76973  -0.75042  -0.69518
 Alpha  occ. eigenvalues --   -0.68618  -0.66561  -0.66207  -0.65826  -0.62866
 Alpha  occ. eigenvalues --   -0.62261  -0.61999  -0.61122  -0.59004  -0.57953
 Alpha  occ. eigenvalues --   -0.57544  -0.57155  -0.53029  -0.52815  -0.51002
 Alpha  occ. eigenvalues --   -0.50165  -0.49917  -0.45918
 Alpha virt. eigenvalues --   -0.28837  -0.26834  -0.17106  -0.16065  -0.14855
 Alpha virt. eigenvalues --   -0.13649  -0.12633  -0.12559  -0.11701  -0.11592
 Alpha virt. eigenvalues --   -0.11302  -0.10733  -0.10447  -0.09669  -0.09585
 Alpha virt. eigenvalues --   -0.08671  -0.07328  -0.07285  -0.07109  -0.06683
 Alpha virt. eigenvalues --   -0.05241  -0.05036  -0.04917  -0.04119  -0.04030
 Alpha virt. eigenvalues --   -0.02113  -0.01904  -0.01632  -0.01512  -0.00550
 Alpha virt. eigenvalues --   -0.00139  -0.00136   0.00798   0.01583   0.01778
 Alpha virt. eigenvalues --    0.02075   0.03313   0.03904   0.04646   0.04817
 Alpha virt. eigenvalues --    0.05079   0.05629   0.05988   0.06121   0.06471
 Alpha virt. eigenvalues --    0.07338   0.07956   0.08677   0.08764   0.09801
 Alpha virt. eigenvalues --    0.10430   0.10856   0.11561   0.11800   0.12224
 Alpha virt. eigenvalues --    0.13506   0.14659   0.16179   0.16325   0.16538
 Alpha virt. eigenvalues --    0.17072   0.18001   0.18986   0.19095   0.21664
 Alpha virt. eigenvalues --    0.21711   0.22492   0.22789   0.24005   0.26428
 Alpha virt. eigenvalues --    0.28618   0.31700   0.35659   0.37591   0.41738
 Alpha virt. eigenvalues --    0.42814   0.45059   0.46335   0.46608   0.48689
 Alpha virt. eigenvalues --    0.49245   0.51125   0.52517   0.53216   0.55289
 Alpha virt. eigenvalues --    0.56362   0.56835   0.57390   0.58832   0.59876
 Alpha virt. eigenvalues --    0.63582   0.64269   0.65025   0.66885   0.67937
 Alpha virt. eigenvalues --    0.69662   0.72372   0.74362   0.75396   0.76373
 Alpha virt. eigenvalues --    0.76783   0.78555   0.78932   0.81533   0.81812
 Alpha virt. eigenvalues --    0.82804   0.83908   0.84998   0.87926   0.88761
 Alpha virt. eigenvalues --    0.91296   0.92932   0.93921   0.94235   0.95556
 Alpha virt. eigenvalues --    0.97006   1.00498   1.01587   1.04236   1.07781
 Alpha virt. eigenvalues --    1.08993   1.09224   1.10450   1.11690   1.14503
 Alpha virt. eigenvalues --    1.16664   1.19320   1.20180   1.22392   1.25357
 Alpha virt. eigenvalues --    1.26222   1.28481   1.30211   1.30798   1.34906
 Alpha virt. eigenvalues --    1.34936   1.39053   1.39537   1.47557   1.49910
 Alpha virt. eigenvalues --    1.51754   1.55018   1.56360   1.58474   1.58601
 Alpha virt. eigenvalues --    1.61628   1.61784   1.65091   1.66193   1.66598
 Alpha virt. eigenvalues --    1.67384   1.68872   1.73503   1.74132   1.75533
 Alpha virt. eigenvalues --    1.77765   1.81141   1.82031   1.83937   1.85155
 Alpha virt. eigenvalues --    1.86117   1.87975   1.88295   1.90777   1.91007
 Alpha virt. eigenvalues --    1.93916   1.94025   1.96955   1.98317   2.00006
 Alpha virt. eigenvalues --    2.02871   2.03000   2.08713   2.11467   2.12774
 Alpha virt. eigenvalues --    2.16240   2.18129   2.18882   2.22183   2.23489
 Alpha virt. eigenvalues --    2.27324   2.29303   2.30218   2.32985   2.35807
 Alpha virt. eigenvalues --    2.36136   2.39817   2.43520   2.44188   2.50959
 Alpha virt. eigenvalues --    2.54040   2.54423   2.58289   2.60421   2.64394
 Alpha virt. eigenvalues --    2.67725   2.68263   2.71997   2.73469   2.75112
 Alpha virt. eigenvalues --    2.79296   2.80001   2.86776   2.95922   3.06165
 Alpha virt. eigenvalues --    3.09457   3.10428   3.20621   3.23854   3.24714
 Alpha virt. eigenvalues --    3.27567   3.35698   3.76151   3.77244   3.93810
 Alpha virt. eigenvalues --    4.01795   4.03118   4.07731   4.13701   4.21640
 Alpha virt. eigenvalues --    4.25285   4.36583   4.41739   4.49051
  Beta  occ. eigenvalues --  -89.46657 -19.42584 -19.42582 -14.72945 -14.72877
  Beta  occ. eigenvalues --  -10.56297 -10.53156 -10.52868 -10.52420 -10.50818
  Beta  occ. eigenvalues --  -10.44617 -10.42840  -8.43704  -6.35430  -6.35377
  Beta  occ. eigenvalues --   -6.35349  -1.37766  -1.32159  -1.21613  -1.10946
  Beta  occ. eigenvalues --   -1.02162  -0.96733  -0.92223  -0.90317  -0.84652
  Beta  occ. eigenvalues --   -0.84209  -0.79322  -0.76539  -0.74509  -0.69200
  Beta  occ. eigenvalues --   -0.68231  -0.65942  -0.65857  -0.65632  -0.62392
  Beta  occ. eigenvalues --   -0.61456  -0.61347  -0.60251  -0.58854  -0.57421
  Beta  occ. eigenvalues --   -0.56963  -0.56435  -0.52737  -0.52449  -0.50024
  Beta  occ. eigenvalues --   -0.49506  -0.48559
  Beta virt. eigenvalues --   -0.37936  -0.26971  -0.26050  -0.15943  -0.15207
  Beta virt. eigenvalues --   -0.14774  -0.13501  -0.12437  -0.12112  -0.11607
  Beta virt. eigenvalues --   -0.11222  -0.11192  -0.10357  -0.10341  -0.09393
  Beta virt. eigenvalues --   -0.09312  -0.08597  -0.07143  -0.07040  -0.06730
  Beta virt. eigenvalues --   -0.06413  -0.05099  -0.04826  -0.04386  -0.04100
  Beta virt. eigenvalues --   -0.03869  -0.02085  -0.01862  -0.01385  -0.01187
  Beta virt. eigenvalues --   -0.00343  -0.00044   0.00425   0.00911   0.01863
  Beta virt. eigenvalues --    0.02129   0.02196   0.03429   0.04155   0.04787
  Beta virt. eigenvalues --    0.04971   0.05127   0.05886   0.06217   0.06222
  Beta virt. eigenvalues --    0.06671   0.07477   0.08198   0.08838   0.08936
  Beta virt. eigenvalues --    0.09894   0.10507   0.11019   0.11776   0.12004
  Beta virt. eigenvalues --    0.12507   0.13803   0.14738   0.16319   0.16519
  Beta virt. eigenvalues --    0.16726   0.17437   0.18201   0.19048   0.19368
  Beta virt. eigenvalues --    0.21759   0.21944   0.22778   0.23019   0.24395
  Beta virt. eigenvalues --    0.26596   0.28693   0.32385   0.36195   0.37832
  Beta virt. eigenvalues --    0.42562   0.42893   0.45141   0.46755   0.46830
  Beta virt. eigenvalues --    0.48894   0.49742   0.51257   0.52728   0.53429
  Beta virt. eigenvalues --    0.55685   0.56815   0.57233   0.57701   0.59387
  Beta virt. eigenvalues --    0.60538   0.63783   0.64660   0.65484   0.66823
  Beta virt. eigenvalues --    0.68133   0.69993   0.72627   0.74935   0.75627
  Beta virt. eigenvalues --    0.76746   0.77289   0.78928   0.79223   0.81738
  Beta virt. eigenvalues --    0.81932   0.82868   0.84189   0.85420   0.88210
  Beta virt. eigenvalues --    0.89311   0.91562   0.92975   0.94396   0.94706
  Beta virt. eigenvalues --    0.95972   0.97342   1.00812   1.01894   1.05017
  Beta virt. eigenvalues --    1.08468   1.09497   1.09611   1.10809   1.11940
  Beta virt. eigenvalues --    1.14789   1.16987   1.19483   1.20281   1.22499
  Beta virt. eigenvalues --    1.25649   1.26528   1.28585   1.30366   1.31520
  Beta virt. eigenvalues --    1.35235   1.35943   1.39580   1.39770   1.48096
  Beta virt. eigenvalues --    1.50384   1.51971   1.56269   1.56996   1.59095
  Beta virt. eigenvalues --    1.59148   1.62401   1.62480   1.65946   1.66295
  Beta virt. eigenvalues --    1.66727   1.67851   1.69315   1.73822   1.74855
  Beta virt. eigenvalues --    1.76104   1.78060   1.81602   1.82638   1.84276
  Beta virt. eigenvalues --    1.85913   1.86302   1.88257   1.88851   1.91151
  Beta virt. eigenvalues --    1.92101   1.94326   1.94492   1.98375   1.99017
  Beta virt. eigenvalues --    2.00352   2.03471   2.03587   2.09638   2.12290
  Beta virt. eigenvalues --    2.13662   2.17256   2.18892   2.19040   2.23443
  Beta virt. eigenvalues --    2.24033   2.27910   2.29990   2.30637   2.33775
  Beta virt. eigenvalues --    2.36333   2.36789   2.40652   2.44045   2.45081
  Beta virt. eigenvalues --    2.52092   2.55102   2.55147   2.58778   2.61185
  Beta virt. eigenvalues --    2.64687   2.68648   2.68724   2.73273   2.74175
  Beta virt. eigenvalues --    2.75130   2.79899   2.80772   2.87361   2.97930
  Beta virt. eigenvalues --    3.05754   3.09188   3.10637   3.21322   3.24196
  Beta virt. eigenvalues --    3.25100   3.27728   3.34917   3.76352   3.78391
  Beta virt. eigenvalues --    3.94628   4.01903   4.04205   4.08761   4.14232
  Beta virt. eigenvalues --    4.22505   4.25711   4.37015   4.42323   4.49352
          Condensed to atoms (all electrons):
               1          2          3          4          5          6
     1  C    8.098514  -1.094507  -1.737795   0.717307   0.126451  -1.112827
     2  C   -1.094507   9.201916  -2.245988   2.200252   0.891982  -2.131064
     3  C   -1.737795  -2.245988  12.052195  -4.880475  -0.414091   3.313596
     4  C    0.717307   2.200252  -4.880475  16.303105 -10.920812   1.477222
     5  C    0.126451   0.891982  -0.414091 -10.920812  39.585101 -18.304230
     6  C   -1.112827  -2.131064   3.313596   1.477222 -18.304230  21.885722
     7  C   -0.070300  -0.229183   0.068414   1.391941  -5.398141   1.573393
     8  N   -0.004079  -0.036506   0.090941   0.038417  -0.203992   0.419924
     9  N   -0.004089  -0.036504   0.090941   0.038681  -0.204210   0.419756
    10  S    0.209826  -0.192632  -0.173895  -1.233314   1.320223  -0.945568
    11  O   -0.079169  -0.046988  -0.019328   0.102697   0.049603  -0.139875
    12  O   -0.079626  -0.047380  -0.019765   0.103232   0.048724  -0.140314
    13  H    0.402602  -0.024854  -0.045158   0.007579  -0.007931  -0.001890
    14  H    0.402937  -0.024944  -0.045297   0.007582  -0.007956  -0.001876
    15  H    0.466799  -0.187664   0.057700   0.006944  -0.002983  -0.000246
    16  H   -0.019366   0.134082   0.136821   0.090536  -0.042867   0.004045
    17  H    0.001448  -0.045069   0.064629   0.069706   0.231814  -0.043312
    18  H    0.000215   0.005068   0.000549  -0.017953   0.063046   0.000713
    19  H    0.000226   0.000670  -0.001035   0.006954   0.039243  -0.169348
    20  H    0.000218   0.005081   0.000548  -0.017997   0.063344   0.000406
               7          8          9         10         11         12
     1  C   -0.070300  -0.004079  -0.004089   0.209826  -0.079169  -0.079626
     2  C   -0.229183  -0.036506  -0.036504  -0.192632  -0.046988  -0.047380
     3  C    0.068414   0.090941   0.090941  -0.173895  -0.019328  -0.019765
     4  C    1.391941   0.038417   0.038681  -1.233314   0.102697   0.103232
     5  C   -5.398141  -0.203992  -0.204210   1.320223   0.049603   0.048724
     6  C    1.573393   0.419924   0.419756  -0.945568  -0.139875  -0.140314
     7  C    8.538410  -0.211624  -0.211585  -0.343721  -0.028658  -0.028674
     8  N   -0.211624   6.246436   0.450032   0.002875  -0.000707  -0.000190
     9  N   -0.211585   0.450032   6.246544   0.002816  -0.000203  -0.000721
    10  S   -0.343721   0.002875   0.002816  15.947327   0.270356   0.271470
    11  O   -0.028658  -0.000707  -0.000203   0.270356   8.568143  -0.258908
    12  O   -0.028674  -0.000190  -0.000721   0.271470  -0.258908   8.569192
    13  H    0.000194  -0.000011   0.000014   0.012959  -0.002419   0.006433
    14  H    0.000191   0.000014  -0.000011   0.012759   0.006399  -0.002411
    15  H   -0.000013  -0.000003  -0.000003   0.013435  -0.000108  -0.000106
    16  H    0.000185   0.000042   0.000042   0.018672  -0.000456  -0.000457
    17  H    0.010398   0.001346   0.001346   0.025316  -0.000291  -0.000293
    18  H    0.285310  -0.008595   0.007725   0.014521   0.000071  -0.001849
    19  H    0.484330   0.000514   0.000485  -0.002404   0.000119   0.000118
    20  H    0.285424   0.007699  -0.008568   0.014536  -0.001843   0.000078
              13         14         15         16         17         18
     1  C    0.402602   0.402937   0.466799  -0.019366   0.001448   0.000215
     2  C   -0.024854  -0.024944  -0.187664   0.134082  -0.045069   0.005068
     3  C   -0.045158  -0.045297   0.057700   0.136821   0.064629   0.000549
     4  C    0.007579   0.007582   0.006944   0.090536   0.069706  -0.017953
     5  C   -0.007931  -0.007956  -0.002983  -0.042867   0.231814   0.063046
     6  C   -0.001890  -0.001876  -0.000246   0.004045  -0.043312   0.000713
     7  C    0.000194   0.000191  -0.000013   0.000185   0.010398   0.285310
     8  N   -0.000011   0.000014  -0.000003   0.000042   0.001346  -0.008595
     9  N    0.000014  -0.000011  -0.000003   0.000042   0.001346   0.007725
    10  S    0.012959   0.012759   0.013435   0.018672   0.025316   0.014521
    11  O   -0.002419   0.006399  -0.000108  -0.000456  -0.000291   0.000071
    12  O    0.006433  -0.002411  -0.000106  -0.000457  -0.000293  -0.001849
    13  H    0.433950  -0.016963  -0.017953   0.000056   0.000001   0.000000
    14  H   -0.016963   0.434017  -0.017937   0.000056   0.000001  -0.000000
    15  H   -0.017953  -0.017937   0.457851   0.000767   0.000001   0.000000
    16  H    0.000056   0.000056   0.000767   0.439967  -0.002428   0.000000
    17  H    0.000001   0.000001   0.000001  -0.002428   0.445942  -0.000003
    18  H    0.000000  -0.000000   0.000000   0.000000  -0.000003   0.445540
    19  H    0.000000   0.000000  -0.000000  -0.000000   0.000001  -0.017036
    20  H   -0.000000   0.000000   0.000000   0.000000  -0.000003  -0.018650
              19         20
     1  C    0.000226   0.000218
     2  C    0.000670   0.005081
     3  C   -0.001035   0.000548
     4  C    0.006954  -0.017997
     5  C    0.039243   0.063344
     6  C   -0.169348   0.000406
     7  C    0.484330   0.285424
     8  N    0.000514   0.007699
     9  N    0.000485  -0.008568
    10  S   -0.002404   0.014536
    11  O    0.000119  -0.001843
    12  O    0.000118   0.000078
    13  H    0.000000  -0.000000
    14  H    0.000000   0.000000
    15  H   -0.000000   0.000000
    16  H   -0.000000   0.000000
    17  H    0.000001  -0.000003
    18  H   -0.017036  -0.018650
    19  H    0.460966  -0.017043
    20  H   -0.017043   0.445369
          Atomic-Atomic Spin Densities.
               1          2          3          4          5          6
     1  C    0.050824  -0.027130  -0.041608   0.014615  -0.007341  -0.015658
     2  C   -0.027130   0.354514   0.015740  -0.011193   0.041086  -0.062845
     3  C   -0.041608   0.015740   0.069429   0.011119  -0.126354   0.119704
     4  C    0.014615  -0.011193   0.011119   0.019163   0.268914  -0.151465
     5  C   -0.007341   0.041086  -0.126354   0.268914   0.033767  -0.062884
     6  C   -0.015658  -0.062845   0.119704  -0.151465  -0.062884   0.201488
     7  C   -0.000992  -0.004442   0.021105  -0.037815   0.095602  -0.008455
     8  N   -0.000027  -0.000200  -0.003116   0.010656  -0.012900   0.015624
     9  N   -0.000026  -0.000200  -0.003109   0.010696  -0.012986   0.015653
    10  S    0.000224  -0.010726  -0.004238   0.014522  -0.035225   0.016825
    11  O    0.000372  -0.002429   0.001159   0.001371  -0.000036  -0.001090
    12  O    0.000372  -0.002456   0.001191   0.001298  -0.000069  -0.001028
    13  H    0.007936  -0.006448  -0.000878  -0.000029   0.000144  -0.000026
    14  H    0.008044  -0.006571  -0.000842  -0.000041   0.000148  -0.000026
    15  H    0.002210  -0.001819  -0.000185   0.000687  -0.000584  -0.000032
    16  H    0.001382  -0.000521  -0.000879   0.002002  -0.002011   0.000003
    17  H   -0.000184  -0.001571   0.003332   0.004006  -0.011438   0.007090
    18  H    0.000000  -0.000147  -0.000015   0.000041   0.000345  -0.002896
    19  H    0.000002   0.000053  -0.000005  -0.000095   0.001305  -0.000182
    20  H   -0.000000  -0.000147  -0.000019   0.000068   0.000347  -0.002901
               7          8          9         10         11         12
     1  C   -0.000992  -0.000027  -0.000026   0.000224   0.000372   0.000372
     2  C   -0.004442  -0.000200  -0.000200  -0.010726  -0.002429  -0.002456
     3  C    0.021105  -0.003116  -0.003109  -0.004238   0.001159   0.001191
     4  C   -0.037815   0.010656   0.010696   0.014522   0.001371   0.001298
     5  C    0.095602  -0.012900  -0.012986  -0.035225  -0.000036  -0.000069
     6  C   -0.008455   0.015624   0.015653   0.016825  -0.001090  -0.001028
     7  C   -0.093656   0.004468   0.004459  -0.003765  -0.000675  -0.000700
     8  N    0.004468   0.145165  -0.036376  -0.000522  -0.000442   0.000348
     9  N    0.004459  -0.036376   0.145222  -0.000514   0.000349  -0.000443
    10  S   -0.003765  -0.000522  -0.000514  -0.016744   0.008672   0.008738
    11  O   -0.000675  -0.000442   0.000349   0.008672   0.002765   0.005914
    12  O   -0.000700   0.000348  -0.000443   0.008738   0.005914   0.002742
    13  H    0.000004  -0.000001   0.000002   0.001010  -0.000159   0.000625
    14  H    0.000004   0.000002  -0.000001   0.001005   0.000625  -0.000159
    15  H   -0.000002  -0.000000  -0.000000  -0.000131   0.000007   0.000007
    16  H   -0.000015   0.000003   0.000003  -0.000447  -0.000002  -0.000002
    17  H   -0.000142  -0.000049  -0.000049  -0.001408  -0.000016  -0.000016
    18  H    0.004317   0.000119  -0.000216   0.000085  -0.000634   0.000108
    19  H   -0.001084   0.000063   0.000062  -0.000049   0.000001   0.000001
    20  H    0.004305  -0.000215   0.000120   0.000072   0.000107  -0.000633
              13         14         15         16         17         18
     1  C    0.007936   0.008044   0.002210   0.001382  -0.000184   0.000000
     2  C   -0.006448  -0.006571  -0.001819  -0.000521  -0.001571  -0.000147
     3  C   -0.000878  -0.000842  -0.000185  -0.000879   0.003332  -0.000015
     4  C   -0.000029  -0.000041   0.000687   0.002002   0.004006   0.000041
     5  C    0.000144   0.000148  -0.000584  -0.002011  -0.011438   0.000345
     6  C   -0.000026  -0.000026  -0.000032   0.000003   0.007090  -0.002896
     7  C    0.000004   0.000004  -0.000002  -0.000015  -0.000142   0.004317
     8  N   -0.000001   0.000002  -0.000000   0.000003  -0.000049   0.000119
     9  N    0.000002  -0.000001  -0.000000   0.000003  -0.000049  -0.000216
    10  S    0.001010   0.001005  -0.000131  -0.000447  -0.001408   0.000085
    11  O   -0.000159   0.000625   0.000007  -0.000002  -0.000016  -0.000634
    12  O    0.000625  -0.000159   0.000007  -0.000002  -0.000016   0.000108
    13  H    0.020356  -0.003785  -0.000098  -0.000004  -0.000000  -0.000000
    14  H   -0.003785   0.020470  -0.000111  -0.000003  -0.000000   0.000000
    15  H   -0.000098  -0.000111  -0.000646   0.000027  -0.000000  -0.000000
    16  H   -0.000004  -0.000003   0.000027  -0.002922  -0.000024  -0.000000
    17  H   -0.000000  -0.000000  -0.000000  -0.000024  -0.007831  -0.000000
    18  H   -0.000000   0.000000  -0.000000  -0.000000  -0.000000   0.008722
    19  H   -0.000000  -0.000000   0.000000   0.000000   0.000000  -0.000004
    20  H    0.000000  -0.000000  -0.000000  -0.000000  -0.000000  -0.001673
              19         20
     1  C    0.000002  -0.000000
     2  C    0.000053  -0.000147
     3  C   -0.000005  -0.000019
     4  C   -0.000095   0.000068
     5  C    0.001305   0.000347
     6  C   -0.000182  -0.002901
     7  C   -0.001084   0.004305
     8  N    0.000063  -0.000215
     9  N    0.000062   0.000120
    10  S   -0.000049   0.000072
    11  O    0.000001   0.000107
    12  O    0.000001  -0.000633
    13  H   -0.000000   0.000000
    14  H   -0.000000  -0.000000
    15  H    0.000000  -0.000000
    16  H    0.000000  -0.000000
    17  H    0.000000  -0.000000
    18  H   -0.000004  -0.001673
    19  H   -0.000567  -0.000003
    20  H   -0.000003   0.008699
 Mulliken charges and spin densities:
               1          2
     1  C   -0.224786  -0.006985
     2  C   -0.095767   0.272547
     3  C   -0.293509   0.061533
     4  C    0.508398   0.158520
     5  C   -0.912318   0.169831
     6  C   -0.104226   0.066900
     7  C   -0.116292  -0.017481
     8  N    0.207466   0.122601
     9  N    0.207508   0.122648
    10  S    0.754443  -0.022615
    11  O   -0.418434   0.015859
    12  O   -0.418554   0.015839
    13  H    0.253393   0.018648
    14  H    0.253437   0.018760
    15  H    0.223518  -0.000670
    16  H    0.240305  -0.003410
    17  H    0.239449  -0.008302
    18  H    0.241329   0.008152
    19  H    0.213239  -0.000502
    20  H    0.241400   0.008129
 Sum of Mulliken charges =   1.00000   1.00000
 Mulliken charges and spin densities with hydrogens summed into heavy atoms:
               1          2
     1  C    0.505561   0.029752
     2  C   -0.095767   0.272547
     3  C   -0.053204   0.058123
     4  C    0.747847   0.150218
     5  C   -0.912318   0.169831
     6  C   -0.104226   0.066900
     7  C    0.579677  -0.001703
     8  N    0.207466   0.122601
     9  N    0.207508   0.122648
    10  S    0.754443  -0.022615
    11  O   -0.418434   0.015859
    12  O   -0.418554   0.015839
 Electronic spatial extent (au):  <R**2>=           2057.1945
 Charge=              1.0000 electrons
 Dipole moment (field-independent basis, Debye):
    X=             -0.7755    Y=              5.2940    Z=              0.0001  Tot=              5.3505
 Quadrupole moment (field-independent basis, Debye-Ang):
   XX=            -38.2228   YY=            -61.6274   ZZ=            -79.0646
   XY=             -9.5520   XZ=             -0.0020   YZ=              0.0033
 Traceless Quadrupole moment (field-independent basis, Debye-Ang):
   XX=             21.4154   YY=             -1.9891   ZZ=            -19.4263
   XY=             -9.5520   XZ=             -0.0020   YZ=              0.0033
 Octapole moment (field-independent basis, Debye-Ang**2):
  XXX=            -43.7564  YYY=             23.8671  ZZZ=              0.0061  XYY=              3.3154
  XXY=             -0.8304  XXZ=              0.0031  XZZ=             -1.2350  YZZ=             -0.4286
  YYZ=             -0.0153  XYZ=             -0.0013
 Hexadecapole moment (field-independent basis, Debye-Ang**3):
 XXXX=          -1379.6126 YYYY=           -569.6254 ZZZZ=           -224.4465 XXXY=            -48.5655
 XXXZ=             -0.0099 YYYX=            -33.2613 YYYZ=              0.0458 ZZZX=             -0.0246
 ZZZY=              0.0264 XXYY=           -349.5728 XXZZ=           -335.8173 YYZZ=           -155.6233
 XXYZ=              0.0124 YYXZ=              0.0227 ZZXY=             -4.4524
 N-N= 8.345705117183D+02 E-N=-3.831654114038D+03  KE= 9.220562352835D+02
                          Isotropic Fermi Contact Couplings
        Atom                 a.u.       MegaHertz       Gauss      10(-4) cm-1
     1  C(13)             -0.00668      -7.51187      -2.68042      -2.50569
     2  C(13)              0.00971      10.91758       3.89566       3.64171
     3  C(13)             -0.00614      -6.90459      -2.46373      -2.30312
     4  C(13)             -0.00220      -2.46823      -0.88073      -0.82331
     5  C(13)              0.00598       6.72423       2.39937       2.24296
[...]
     8  N   -0.000054  -0.000260  -0.003950   0.014573  -0.027692   0.025064
     9  N   -0.000052  -0.000256  -0.003953   0.014586  -0.027684   0.025042
    10  S    0.000061  -0.006688  -0.017469   0.031679  -0.043054   0.017220
    11  O    0.000214  -0.004214   0.001573   0.001966   0.001004  -0.001562
    12  O    0.000227  -0.004215   0.001577   0.001957   0.001002  -0.001558
    13  H    0.009558  -0.008933  -0.000915  -0.000072   0.000213  -0.000046
    14  H    0.009574  -0.008960  -0.000895  -0.000081   0.000218  -0.000045
    15  H    0.002739  -0.002137  -0.000359   0.000894  -0.000708  -0.000045
    16  H    0.001035   0.000582  -0.002767   0.003180  -0.002333  -0.000015
    17  H   -0.000196  -0.001816   0.003904   0.003905  -0.013993   0.009930
    18  H    0.000001  -0.000170  -0.000013   0.000087   0.000432  -0.003264
    19  H    0.000005   0.000081  -0.000018  -0.000133   0.002504  -0.001260
    20  H    0.000001  -0.000170  -0.000014   0.000094   0.000433  -0.003275
               7          8          9         10         11         12
     1  C   -0.001224  -0.000054  -0.000052   0.000061   0.000214   0.000227
     2  C   -0.006392  -0.000260  -0.000256  -0.006688  -0.004214  -0.004215
     3  C    0.030936  -0.003950  -0.003953  -0.017469   0.001573   0.001577
     4  C   -0.066425   0.014573   0.014586   0.031679   0.001966   0.001957
     5  C    0.141302  -0.027692  -0.027684  -0.043054   0.001004   0.001002
     6  C   -0.005150   0.025064   0.025042   0.017220  -0.001562  -0.001558
     7  C   -0.135983   0.008032   0.008025  -0.000199  -0.000796  -0.000801
     8  N    0.008032   0.151349  -0.039958  -0.001038  -0.000305   0.000241
     9  N    0.008025  -0.039958   0.151349  -0.001038   0.000241  -0.000306
    10  S   -0.000199  -0.001038  -0.001038  -0.011264   0.007417   0.007415
    11  O   -0.000796  -0.000305   0.000241   0.007417  -0.002484   0.003897
    12  O   -0.000801   0.000241  -0.000306   0.007415   0.003897  -0.002492
    13  H    0.000005  -0.000001   0.000002   0.001178  -0.000239   0.000782
    14  H    0.000005   0.000002  -0.000001   0.001174   0.000782  -0.000239
    15  H   -0.000003  -0.000000  -0.000000  -0.000253   0.000010   0.000010
    16  H   -0.000023   0.000005   0.000005  -0.000055  -0.000003  -0.000003
    17  H   -0.000070  -0.000080  -0.000080  -0.001843  -0.000022  -0.000022
    18  H    0.004050  -0.000154  -0.000028   0.000165  -0.000566   0.000102
    19  H   -0.001254   0.000080   0.000080  -0.000017   0.000001   0.000001
    20  H    0.004059  -0.000028  -0.000154   0.000161   0.000102  -0.000567
              13         14         15         16         17         18
     1  C    0.009558   0.009574   0.002739   0.001035  -0.000196   0.000001
     2  C   -0.008933  -0.008960  -0.002137   0.000582  -0.001816  -0.000170
     3  C   -0.000915  -0.000895  -0.000359  -0.002767   0.003904  -0.000013
     4  C   -0.000072  -0.000081   0.000894   0.003180   0.003905   0.000087
     5  C    0.000213   0.000218  -0.000708  -0.002333  -0.013993   0.000432
     6  C   -0.000046  -0.000045  -0.000045  -0.000015   0.009930  -0.003264
     7  C    0.000005   0.000005  -0.000003  -0.000023  -0.000070   0.004050
     8  N   -0.000001   0.000002  -0.000000   0.000005  -0.000080  -0.000154
     9  N    0.000002  -0.000001  -0.000000   0.000005  -0.000080  -0.000028
    10  S    0.001178   0.001174  -0.000253  -0.000055  -0.001843   0.000165
    11  O   -0.000239   0.000782   0.000010  -0.000003  -0.000022  -0.000566
    12  O    0.000782  -0.000239   0.000010  -0.000003  -0.000022   0.000102
    13  H    0.024628  -0.004824  -0.000121  -0.000004  -0.000000  -0.000000
    14  H   -0.004824   0.024673  -0.000128  -0.000004  -0.000000   0.000000
    15  H   -0.000121  -0.000128  -0.000537   0.000035  -0.000000  -0.000000
    16  H   -0.000004  -0.000004   0.000035  -0.000716  -0.000034  -0.000000
    17  H   -0.000000  -0.000000  -0.000000  -0.000034  -0.009222  -0.000000
    18  H   -0.000000   0.000000  -0.000000  -0.000000  -0.000000   0.009893
    19  H   -0.000000  -0.000000   0.000000   0.000000   0.000000  -0.000000
    20  H    0.000000  -0.000000  -0.000000  -0.000000  -0.000000  -0.002020
              19         20
     1  C    0.000005   0.000001
     2  C    0.000081  -0.000170
     3  C   -0.000018  -0.000014
     4  C   -0.000133   0.000094
     5  C    0.002504   0.000433
     6  C   -0.001260  -0.003275
     7  C   -0.001254   0.004059
     8  N    0.000080  -0.000028
     9  N    0.000080  -0.000154
    10  S   -0.000017   0.000161
    11  O    0.000001   0.000102
    12  O    0.000001  -0.000567
    13  H   -0.000000   0.000000
    14  H   -0.000000  -0.000000
    15  H    0.000000  -0.000000
    16  H    0.000000  -0.000000
    17  H    0.000000  -0.000000
    18  H   -0.000000  -0.002020
    19  H   -0.000504   0.000000
    20  H    0.000000   0.009889
 Mulliken charges and spin densities:
               1          2
     1  C   -0.213331  -0.010350
     2  C   -0.146535   0.326283
     3  C   -0.320117   0.003853
     4  C    0.495106   0.195861
     5  C   -1.160053   0.121471
     6  C    0.070977   0.087875
     7  C   -0.052425  -0.021907
     8  N    0.220959   0.125824
     9  N    0.220952   0.125823
    10  S    0.828083  -0.016446
    11  O   -0.419404   0.007014
    12  O   -0.419445   0.007006
    13  H    0.249456   0.021210
    14  H    0.249508   0.021251
    15  H    0.223349  -0.000605
    16  H    0.236197  -0.001116
    17  H    0.232562  -0.009638
    18  H    0.244324   0.008514
    19  H    0.215521  -0.000432
    20  H    0.244314   0.008510
 Sum of Mulliken charges =   1.00000   1.00000
 Mulliken charges and spin densities with hydrogens summed into heavy atoms:
               1          2
     1  C    0.508983   0.031506
     2  C   -0.146535   0.326283
     3  C   -0.083920   0.002737
     4  C    0.727668   0.186222
     5  C   -1.160053   0.121471
     6  C    0.070977   0.087875
     7  C    0.651734  -0.005315
     8  N    0.220959   0.125824
     9  N    0.220952   0.125823
    10  S    0.828083  -0.016446
    11  O   -0.419404   0.007014
    12  O   -0.419445   0.007006
 Electronic spatial extent (au):  <R**2>=           2053.8204
 Charge=              1.0000 electrons
 Dipole moment (field-independent basis, Debye):
    X=             -0.1565    Y=              4.9475    Z=             -0.0003  Tot=              4.9499
 Quadrupole moment (field-independent basis, Debye-Ang):
   XX=            -37.3740   YY=            -61.2381   ZZ=            -79.2292
   XY=             -8.8766   XZ=             -0.0006   YZ=             -0.0022
 Traceless Quadrupole moment (field-independent basis, Debye-Ang):
   XX=             21.9064   YY=             -1.9576   ZZ=            -19.9488
   XY=             -8.8766   XZ=             -0.0006   YZ=             -0.0022
 Octapole moment (field-independent basis, Debye-Ang**2):
  XXX=            -33.5499  YYY=             22.6519  ZZZ=              0.0040  XYY=              4.6320
  XXY=              0.7304  XXZ=              0.0048  XZZ=             -0.6634  YZZ=             -0.7106
  YYZ=             -0.0054  XYZ=             -0.0004
 Hexadecapole moment (field-independent basis, Debye-Ang**3):
 XXXX=          -1354.8162 YYYY=           -579.4900 ZZZZ=           -224.3195 XXXY=            -42.0723
 XXXZ=             -0.0055 YYYX=            -31.3224 YYYZ=              0.0098 ZZZX=              0.0004
 ZZZY=              0.0290 XXYY=           -344.7407 XXZZ=           -333.1489 YYZZ=           -158.1659
 XXYZ=              0.0006 YYXZ=              0.0149 ZZXY=             -4.2369
 N-N= 8.343361533121D+02 E-N=-3.831258804358D+03  KE= 9.220705560527D+02
                          Isotropic Fermi Contact Couplings
        Atom                 a.u.       MegaHertz       Gauss      10(-4) cm-1
     1  C(13)             -0.00784      -8.81898      -3.14683      -2.94169
     2  C(13)              0.01638      18.41434       6.57070       6.14236
     3  C(13)             -0.00819      -9.21127      -3.28681      -3.07255
     4  C(13)              0.00229       2.57307       0.91814       0.85828
     5  C(13)              0.00383       4.30488       1.53609       1.43595
     6  C(13)              0.00547       6.14905       2.19413       2.05110
     7  C(13)             -0.00348      -3.90712      -1.39416      -1.30327
     8  N(14)              0.02102       6.79209       2.42359       2.26560
     9  N(14)              0.02102       6.79223       2.42364       2.26565
    10  S(33)             -0.01502      -5.15918      -1.84092      -1.72092
    11  O(17)              0.00141      -0.85344      -0.30453      -0.28468
    12  O(17)              0.00141      -0.85287      -0.30433      -0.28449
    13  H(1)               0.01216      54.36630      19.39925      18.13465
    14  H(1)               0.01219      54.47945      19.43962      18.17239
    15  H(1)              -0.00016      -0.72561      -0.25892      -0.24204
    16  H(1)              -0.00088      -3.93077      -1.40260      -1.31116
    17  H(1)              -0.00431     -19.28086      -6.87989      -6.43140
    18  H(1)               0.00485      21.69197       7.74023       7.23566
    19  H(1)              -0.00026      -1.16164      -0.41450      -0.38748
    20  H(1)               0.00485      21.68361       7.73725       7.23288
 --------------------------------------------------------
       Center         ----  Spin Dipole Couplings  ----
                      3XX-RR        3YY-RR        3ZZ-RR
 --------------------------------------------------------
     1   Atom       -0.007344     -0.012159      0.019503
     2   Atom       -0.194768     -0.196828      0.391597
     3   Atom       -0.009061     -0.009146      0.018207
     4   Atom       -0.117393     -0.117444      0.234837
     5   Atom       -0.078411     -0.084485      0.162896
     6   Atom       -0.067986     -0.074569      0.142554
     7   Atom       -0.005531     -0.001859      0.007390
     8   Atom        0.008288      0.138256     -0.146544
     9   Atom        0.008286      0.138225     -0.146511
    10   Atom       -0.027125     -0.001888      0.029013
    11   Atom        0.044845     -0.026762     -0.018083
    12   Atom        0.044824     -0.026752     -0.018072
    13   Atom        0.002560     -0.000528     -0.002033
    14   Atom        0.002562     -0.000548     -0.002014
    15   Atom        0.006377     -0.002791     -0.003587
    16   Atom       -0.004701      0.010289     -0.005588
    17   Atom       -0.007411      0.013228     -0.005817
    18   Atom       -0.001437      0.003455     -0.002017
    19   Atom       -0.000319      0.003407     -0.003088
    20   Atom       -0.001436      0.003456     -0.002020
 --------------------------------------------------------
                        XY            XZ            YZ
 --------------------------------------------------------
     1   Atom        0.001578      0.000003      0.000002
     2   Atom       -0.006304      0.000018      0.000075
     3   Atom        0.002778     -0.000002     -0.000001
     4   Atom        0.005045     -0.000002      0.000047
     5   Atom       -0.001212     -0.000005      0.000026
     6   Atom       -0.001574     -0.000003      0.000023
     7   Atom       -0.000472     -0.000001      0.000001
     8   Atom        0.243310      0.052758      0.077398
     9   Atom        0.243297     -0.052808     -0.077456
    10   Atom        0.019425     -0.000003      0.000005
    11   Atom       -0.022769     -0.004061     -0.001246
    12   Atom       -0.022765      0.004073      0.001247
    13   Atom        0.004610      0.003763      0.004247
    14   Atom        0.004604     -0.003772     -0.004252
    15   Atom       -0.002960      0.000003      0.000001
    16   Atom       -0.001017     -0.000000     -0.000002
    17   Atom        0.014174     -0.000002     -0.000002
    18   Atom        0.000126     -0.000677     -0.002935
    19   Atom       -0.003279      0.000000     -0.000000
    20   Atom        0.000127      0.000677      0.002933
 --------------------------------------------------------


 ---------------------------------------------------------------------------------
              Anisotropic Spin Dipole Couplings in Principal Axis System
 ---------------------------------------------------------------------------------

       Atom             a.u.   MegaHertz   Gauss  10(-4) cm-1        Axes

              Baa    -0.0126    -1.695    -0.605    -0.565 -0.2860  0.9582 -0.0000
     1 C(13)  Bbb    -0.0069    -0.922    -0.329    -0.308  0.9582  0.2860 -0.0001
              Bcc     0.0195     2.617     0.934     0.873  0.0001  0.0001  1.0000
 
              Baa    -0.2022   -27.131    -9.681    -9.050  0.6476  0.7620 -0.0001
     2 C(13)  Bbb    -0.1894   -25.417    -9.069    -8.478  0.7620 -0.6476  0.0001
              Bcc     0.3916    52.549    18.751    17.528  0.0000  0.0001  1.0000
 
              Baa    -0.0119    -1.594    -0.569    -0.532 -0.7017  0.7124 -0.0000
     3 C(13)  Bbb    -0.0063    -0.849    -0.303    -0.283  0.7124  0.7017  0.0001
              Bcc     0.0182     2.443     0.872     0.815 -0.0001 -0.0001  1.0000
 
              Baa    -0.1225   -16.433    -5.864    -5.482 -0.7053  0.7089 -0.0001
     4 C(13)  Bbb    -0.1124   -15.080    -5.381    -5.030  0.7089  0.7053 -0.0001
              Bcc     0.2348    31.513    11.245    10.512 -0.0000  0.0001  1.0000
 
              Baa    -0.0847   -11.368    -4.057    -3.792  0.1886  0.9820 -0.0001
     5 C(13)  Bbb    -0.0782   -10.491    -3.743    -3.499  0.9820 -0.1886  0.0000
              Bcc     0.1629    21.859     7.800     7.291 -0.0000  0.0001  1.0000
 
              Baa    -0.0749   -10.054    -3.588    -3.354  0.2212  0.9752 -0.0001
     6 C(13)  Bbb    -0.0676    -9.075    -3.238    -3.027  0.9752 -0.2212  0.0000
              Bcc     0.1426    19.129     6.826     6.381 -0.0000  0.0001  1.0000
 
              Baa    -0.0056    -0.750    -0.268    -0.250  0.9921  0.1254  0.0000
     7 C(13)  Bbb    -0.0018    -0.242    -0.086    -0.081 -0.1254  0.9921 -0.0001
              Bcc     0.0074     0.992     0.354     0.331 -0.0000  0.0001  1.0000
 
              Baa    -0.1803    -6.953    -2.481    -2.319  0.7190 -0.6237  0.3065
     8 N(14)  Bbb    -0.1627    -6.275    -2.239    -2.093 -0.3562  0.0480  0.9332
              Bcc     0.3430    13.228     4.720     4.412  0.5967  0.7802  0.1877
 
              Baa    -0.1803    -6.953    -2.481    -2.319  0.7190 -0.6238 -0.3064
     9 N(14)  Bbb    -0.1627    -6.275    -2.239    -2.093  0.3562 -0.0478  0.9332
              Bcc     0.3430    13.228     4.720     4.412  0.5967  0.7801 -0.1878
 
              Baa    -0.0377    -1.544    -0.551    -0.515  0.8789 -0.4771  0.0001
    10 S(33)  Bbb     0.0087     0.355     0.127     0.118  0.4771  0.8789 -0.0001
              Bcc     0.0290     1.190     0.424     0.397 -0.0000  0.0002  1.0000
 
              Baa    -0.0337     2.441     0.871     0.814  0.2823  0.9477  0.1486
    11 O(17)  Bbb    -0.0179     1.296     0.463     0.432  0.0070 -0.1569  0.9876
              Bcc     0.0517    -3.738    -1.334    -1.247  0.9593 -0.2777 -0.0509
 
              Baa    -0.0337     2.441     0.871     0.814  0.2824  0.9477 -0.1489
    12 O(17)  Bbb    -0.0179     1.295     0.462     0.432 -0.0071  0.1573  0.9875
              Bcc     0.0516    -3.736    -1.333    -1.246  0.9593 -0.2778  0.0511
 
              Baa    -0.0056    -2.985    -1.065    -0.996  0.0193 -0.6525  0.7576
    13 H(1)   Bbb    -0.0032    -1.684    -0.601    -0.562  0.7207 -0.5161 -0.4628
              Bcc     0.0088     4.669     1.666     1.558  0.6929  0.5549  0.4603
 
              Baa    -0.0056    -2.987    -1.066    -0.996 -0.0201  0.6547  0.7557
    14 H(1)   Bbb    -0.0032    -1.684    -0.601    -0.562  0.7207 -0.5144  0.4648
              Bcc     0.0088     4.671     1.667     1.558  0.6930  0.5539 -0.4615
 
              Baa    -0.0037    -1.954    -0.697    -0.652  0.2827  0.9590 -0.0183
    15 H(1)   Bbb    -0.0036    -1.914    -0.683    -0.638  0.0050  0.0176  0.9998
              Bcc     0.0072     3.868     1.380     1.290  0.9592 -0.2828  0.0002
 
              Baa    -0.0056    -2.982    -1.064    -0.995  0.0003  0.0001  1.0000
    16 H(1)   Bbb    -0.0048    -2.545    -0.908    -0.849  0.9977  0.0674 -0.0003
              Bcc     0.0104     5.526     1.972     1.843 -0.0674  0.9977 -0.0001
 
              Baa    -0.0146    -7.803    -2.784    -2.603  0.8912 -0.4535  0.0001
    17 H(1)   Bbb    -0.0058    -3.104    -1.107    -1.035 -0.0000  0.0001  1.0000
              Bcc     0.0204    10.906     3.892     3.638  0.4535  0.8912 -0.0001
 
              Baa    -0.0035    -1.844    -0.658    -0.615  0.2741  0.3716  0.8870
    18 H(1)   Bbb    -0.0013    -0.693    -0.247    -0.231  0.9597 -0.1657 -0.2272
              Bcc     0.0048     2.537     0.905     0.846  0.0625  0.9135 -0.4021
 
              Baa    -0.0031    -1.648    -0.588    -0.550 -0.0001 -0.0000  1.0000
    19 H(1)   Bbb    -0.0022    -1.188    -0.424    -0.396  0.8643  0.5030  0.0001
              Bcc     0.0053     2.836     1.012     0.946 -0.5030  0.8643 -0.0001
 
              Baa    -0.0035    -1.844    -0.658    -0.615 -0.2739 -0.3714  0.8872
    20 H(1)   Bbb    -0.0013    -0.693    -0.247    -0.231  0.9597 -0.1656  0.2270
              Bcc     0.0048     2.537     0.905     0.846  0.0626  0.9136  0.4018
 

 ---------------------------------------------------------------------------------

 No NMR shielding tensors so no spin-rotation constants.
 Leave Link  601 at Fri Aug  3 01:31:45 2018, MaxMem=  1073741824 cpu:               5.1 elap:               0.4
 (Enter /shared/apps/gaussian/gaussian-16/g16/l9999.exe)
 1\1\GINC-COMPUTE-0-188\FOpt\UM06\6-31+G(d,p)\C7H8N2O2S1(1+,2)\ROOT\03-
 Aug-2018\0\\#p M06/6-31+G(d,p) opt\\ADNOQZQZUQQVRY-UHFFFAOYSA-N_cat-ra
 d_vac\\1,2\C,-3.4114255268,0.3170449155,0.0001554811\C,-1.9825781839,0
 .6318543073,-0.0000042545\C,-1.302987905,1.8239646318,-0.0001527975\C,
 0.1147131558,1.7206909581,-0.0001377437\C,0.6084932085,0.4254449309,0.
 0000245517\C,1.9295276815,-0.0635733208,0.0000778459\C,2.2982674608,-1
 .50280364,0.0002419704\N,2.9574161001,0.9302776465,0.5943204892\N,2.95
 74234035,0.9301538615,-0.5943529849\S,-0.7943547857,-0.7231202332,0.00
 01708213\O,-0.8431216921,-1.4145364902,1.2739639287\O,-0.8431049128,-1
 .4148685182,-1.2734397633\H,-3.6610046517,-0.2984959422,-0.8774504709\
 H,-3.6610709015,-0.2967606774,0.878977809\H,-4.0268380339,1.2192157471
 ,-0.0007032589\H,-1.8114217863,2.7845106521,-0.0002927857\H,0.75435260
 97,2.6005980376,-0.0002529247\H,1.8960398219,-2.0032917892,0.889592988
 5\H,3.3838694372,-1.6217486341,0.0001134044\H,1.8958055007,-2.00355644
 31,-0.8888523061\\Version=EM64L-G16RevA.03\State=2-A\HF=-928.8880474\S
 2=0.763694\S2-1=0.\S2A=0.750084\RMSD=2.530e-09\RMSF=2.621e-05\Dipole=-
 0.0690383,1.9462301,-0.0001083\Quadrupole=16.3373404,-1.5059304,-14.83
 141,-6.5311331,-0.0004546,-0.0016272\PG=C01 [X(C7H8N2O2S1)]\\@


 I WANT TO KNOW HOW GOD CREATED THE WORLD.  I AM NOT INTERESTED IN
 THIS OR THAT PHENOMENON, IN THE SPECTRUM OF THIS OR THAT ELEMENT.
 I WANT TO KNOW HIS THOUGHTS, THE REST ARE DETAILS.
     -- ALBERT EINSTEIN
 Job cpu time:       0 days  4 hours 30 minutes 41.4 seconds.
 Elapsed time:       0 days  0 hours 16 minutes 59.5 seconds.
 File lengths (MBytes):  RWF=    304 Int=      0 D2E=      0 Chk=     32 Scr=     32
 Normal termination of Gaussian 16 at Fri Aug  3 01:31:45 2018.
