 Entering Gaussian System, Link 0=g16
 Input=ADNOQZQZUQQVRY-UHFFFAOYSA-N_S1_solv.com
 Output=ADNOQZQZUQQVRY-UHFFFAOYSA-N_S1_solv.log
 Initial command:
 /shared/apps/gaussian/gaussian-16/g16/l1.exe "/gss_gpfs_scratch/abreha.b/diazirines1_231_4_2018-08-02/s1_dft-opt_solv/Gau-7613.inp" -scrdir="/gss_gpfs_scratch/abreha.b/diazirines1_231_4_2018-08-02/s1_dft-opt_solv/"
 Entering Link 1 = /shared/apps/gaussian/gaussian-16/g16/l1.exe PID=      7614.
  
 Copyright (c) 1988,1990,1992,1993,1995,1998,2003,2009,2016,
            Gaussian, Inc.  All Rights Reserved.
  
 This is part of the Gaussian(R) 16 program.  It is based on
 the Gaussian(R) 09 system (copyright 2009, Gaussian, Inc.),
 the Gaussian(R) 03 system (copyright 2003, Gaussian, Inc.),
 the Gaussian(R) 98 system (copyright 1998, Gaussian, Inc.),
 the Gaussian(R) 94 system (copyright 1995, Gaussian, Inc.),
 the Gaussian 92(TM) system (copyright 1992, Gaussian, Inc.),
 the Gaussian 90(TM) system (copyright 1990, Gaussian, Inc.),
 the Gaussian 88(TM) system (copyright 1988, Gaussian, Inc.),
 the Gaussian 86(TM) system (copyright 1986, Carnegie Mellon
 University), and the Gaussian 82(TM) system (copyright 1983,
 Carnegie Mellon University). Gaussian is a federally registered
 trademark of Gaussian, Inc.
  
 This software contains proprietary and confidential information,
 including trade secrets, belonging to Gaussian, Inc.
  
 This software is provided under written license and may be
 used, copied, transmitted, or stored only in accord with that
 written license.
  
 The following legend is applicable only to US Government
 contracts under FAR:
  
                    RESTRICTED RIGHTS LEGEND
  
 Use, reproduction and disclosure by the US Government is
 subject to restrictions as set forth in subparagraphs (a)
 and (c) of the Commercial Computer Software - Restricted
 Rights clause in FAR 52.227-19.
  
 Gaussian, Inc.
 340 Quinnipiac St., Bldg. 40, Wallingford CT 06492
  
  
 ---------------------------------------------------------------
 Warning -- This program may not be used in any manner that
 competes with the business of Gaussian, Inc. or will provide
 assistance to any competitor of Gaussian, Inc.  The licensee
 of this program is prohibited from giving any competitor of
 Gaussian, Inc. access to this program.  By using this program,
 the user acknowledges that Gaussian, Inc. is engaged in the
 business of creating and licensing software in the field of
 computational chemistry and represents and warrants to the
 licensee that it is not a competitor of Gaussian, Inc. and that
 it will not use this program in any manner prohibited above.
 ---------------------------------------------------------------
  

 Cite this work as:
 Gaussian 16, Revision A.03,
 M. J. Frisch, G. W. Trucks, H. B. Schlegel, G. E. Scuseria, 
 M. A. Robb, J. R. Cheeseman, G. Scalmani, V. Barone, 
 G. A. Petersson, H. Nakatsuji, X. Li, M. Caricato, A. V. Marenich, 
 J. Bloino, B. G. Janesko, R. Gomperts, B. Mennucci, H. P. Hratchian, 
 J. V. Ortiz, A. F. Izmaylov, J. L. Sonnenberg, D. Williams-Young, 
 F. Ding, F. Lipparini, F. Egidi, J. Goings, B. Peng, A. Petrone, 
 T. Henderson, D. Ranasinghe, V. G. Zakrzewski, J. Gao, N. Rega, 
 G. Zheng, W. Liang, M. Hada, M. Ehara, K. Toyota, R. Fukuda, 
 J. Hasegawa, M. Ishida, T. Nakajima, Y. Honda, O. Kitao, H. Nakai, 
 T. Vreven, K. Throssell, J. A. Montgomery, Jr., J. E. Peralta, 
 F. Ogliaro, M. J. Bearpark, J. J. Heyd, E. N. Brothers, K. N. Kudin, 
 V. N. Staroverov, T. A. Keith, R. Kobayashi, J. Normand, 
 K. Raghavachari, A. P. Rendell, J. C. Burant, S. S. Iyengar, 
 J. Tomasi, M. Cossi, J. M. Millam, M. Klene, C. Adamo, R. Cammi, 
 J. W. Ochterski, R. L. Martin, K. Morokuma, O. Farkas, 
 J. B. Foresman, and D. J. Fox, Gaussian, Inc., Wallingford CT, 2016.
 
 ******************************************
 Gaussian 16:  EM64L-G16RevA.03 25-Dec-2016
                 3-Aug-2018 
 ******************************************
 %rwf=ADNOQZQZUQQVRY-UHFFFAOYSA-N_S1_solv.rwf
 %NoSave
 %chk=ADNOQZQZUQQVRY-UHFFFAOYSA-N_S1_solv.chk
 %mem=8GB
 %nproc=16
 Will use up to   16 processors via shared memory.
 ------------------------------------------------------------
 #p M06/6-31+G(d,p) SCRF=(Solvent=Acetonitrile) opt td=root=1
 ------------------------------------------------------------
 1/18=20,19=15,26=3,38=1/1,3;
 2/9=110,12=2,17=6,18=5,40=1/2;
 3/5=1,6=6,7=111,11=9,25=1,30=1,70=2201,71=1,72=2,74=-54/1,2,3,8;
 4//1;
 5/5=2,38=5,53=2/2;
 8/6=1,10=2,107=1/1;
 9/8=1,15=2,42=1,70=2/14;
 10/5=4,28=1/2;
 6/7=2,8=2,9=2,10=2/1;
 7/12=6,13=5,14=1/1,2,3,16;
 1/18=20,19=15,26=3/3(2);
 2/9=110/2;
 99//99;
 2/9=110/2;
 3/5=1,6=6,7=111,11=9,25=1,30=1,70=2205,71=1,72=2,74=-54/1,2,3,8;
 4/5=5,16=3,69=1/1;
 5/5=2,38=5,53=2/2;
 8/6=1,10=2,107=1/1;
 9/8=1,15=2,42=1,49=4,70=2/14;
 10/5=4,28=1/2;
 7/12=6,13=5,14=1/1,2,3,16;
 1/18=20,19=15,26=3/3(-8);
 2/9=110/2;
 6/7=2,8=2,9=2,10=2/1;
 99//99;
 Leave Link    1 at Fri Aug  3 00:36:54 2018, MaxMem=  1073741824 cpu:             159.7 elap:              11.6
 (Enter /shared/apps/gaussian/gaussian-16/g16/l101.exe)
 -----------------------------------
 ADNOQZQZUQQVRY-UHFFFAOYSA-N_S1_solv
 -----------------------------------
 Symbolic Z-matrix:
 Charge =  0 Multiplicity = 1
 C                    -3.422     0.294     0. 
 C                    -1.989     0.654     0. 
 C                    -1.329     1.818     0. 
 C                     0.137     1.71      0. 
 C                     0.618     0.456     0. 
 C                     1.996    -0.029     0. 
 C                     2.297    -1.495     0. 
 N                     2.967     0.898     0.613 
 N                     2.967     0.898    -0.613 
 S                    -0.782    -0.675     0. 
 O                    -0.847    -1.41      1.263 
 O                    -0.847    -1.409    -1.263 
 H                    -3.669    -0.311    -0.882 
 H                    -3.669    -0.307     0.885 
 H                    -4.047     1.191    -0.002 
 H                    -1.829     2.783     0. 
 H                     0.775     2.59      0. 
 H                     1.876    -1.981     0.888 
 H                     3.379    -1.652     0. 
 H                     1.876    -1.982    -0.887 
 
 ITRead=  0  0  0  0  0  0  0  0  0  0  0  0  0  0  0  0  0  0  0  0
 MicOpt= -1 -1 -1 -1 -1 -1 -1 -1 -1 -1 -1 -1 -1 -1 -1 -1 -1 -1 -1 -1
 NAtoms=     20 NQM=       20 NQMF=       0 NMMI=      0 NMMIF=      0
                NMic=       0 NMicF=      0.
                    Isotopes and Nuclear Properties:
 (Nuclear quadrupole moments (NQMom) in fm**2, nuclear magnetic moments (NMagM)
  in nuclear magnetons)

  Atom         1           2           3           4           5           6           7           8           9          10
 IAtWgt=          12          12          12          12          12          12          12          14          14          32
 AtmWgt=  12.0000000  12.0000000  12.0000000  12.0000000  12.0000000  12.0000000  12.0000000  14.0030740  14.0030740  31.9720718
 NucSpn=           0           0           0           0           0           0           0           2           2           0
 AtZEff=  -0.0000000  -0.0000000  -0.0000000  -0.0000000  -0.0000000  -0.0000000  -0.0000000  -0.0000000  -0.0000000  -0.0000000
 NQMom=    0.0000000   0.0000000   0.0000000   0.0000000   0.0000000   0.0000000   0.0000000   2.0440000   2.0440000   0.0000000
 NMagM=    0.0000000   0.0000000   0.0000000   0.0000000   0.0000000   0.0000000   0.0000000   0.4037610   0.4037610   0.0000000
 AtZNuc=   6.0000000   6.0000000   6.0000000   6.0000000   6.0000000   6.0000000   6.0000000   7.0000000   7.0000000  16.0000000

  Atom        11          12          13          14          15          16          17          18          19          20
 IAtWgt=          16          16           1           1           1           1           1           1           1           1
 AtmWgt=  15.9949146  15.9949146   1.0078250   1.0078250   1.0078250   1.0078250   1.0078250   1.0078250   1.0078250   1.0078250
 NucSpn=           0           0           1           1           1           1           1           1           1           1
 AtZEff=  -0.0000000  -0.0000000  -0.0000000  -0.0000000  -0.0000000  -0.0000000  -0.0000000  -0.0000000  -0.0000000  -0.0000000
 NQMom=    0.0000000   0.0000000   0.0000000   0.0000000   0.0000000   0.0000000   0.0000000   0.0000000   0.0000000   0.0000000
 NMagM=    0.0000000   0.0000000   2.7928460   2.7928460   2.7928460   2.7928460   2.7928460   2.7928460   2.7928460   2.7928460
 AtZNuc=   8.0000000   8.0000000   1.0000000   1.0000000   1.0000000   1.0000000   1.0000000   1.0000000   1.0000000   1.0000000
 Leave Link  101 at Fri Aug  3 00:36:55 2018, MaxMem=  1073741824 cpu:               5.7 elap:               0.6
 (Enter /shared/apps/gaussian/gaussian-16/g16/l103.exe)

 GradGradGradGradGradGradGradGradGradGradGradGradGradGradGradGradGradGrad
 Berny optimization.
 Initialization pass.
                           ----------------------------
                           !    Initial Parameters    !
                           ! (Angstroms and Degrees)  !
 --------------------------                            --------------------------
 ! Name  Definition              Value          Derivative Info.                !
 --------------------------------------------------------------------------------
 ! R1    R(1,2)                  1.4775         estimate D2E/DX2                !
 ! R2    R(1,13)                 1.0977         estimate D2E/DX2                !
 ! R3    R(1,14)                 1.0979         estimate D2E/DX2                !
 ! R4    R(1,15)                 1.0933         estimate D2E/DX2                !
 ! R5    R(2,3)                  1.3381         estimate D2E/DX2                !
 ! R6    R(2,10)                 1.7953         estimate D2E/DX2                !
 ! R7    R(3,4)                  1.47           estimate D2E/DX2                !
 ! R8    R(3,16)                 1.0868         estimate D2E/DX2                !
 ! R9    R(4,5)                  1.3431         estimate D2E/DX2                !
 ! R10   R(4,17)                 1.0869         estimate D2E/DX2                !
 ! R11   R(5,6)                  1.4609         estimate D2E/DX2                !
 ! R12   R(5,10)                 1.7998         estimate D2E/DX2                !
 ! R13   R(6,7)                  1.4966         estimate D2E/DX2                !
 ! R14   R(6,8)                  1.4758         estimate D2E/DX2                !
 ! R15   R(6,9)                  1.4758         estimate D2E/DX2                !
 ! R16   R(7,18)                 1.0963         estimate D2E/DX2                !
 ! R17   R(7,19)                 1.0933         estimate D2E/DX2                !
 ! R18   R(7,20)                 1.096          estimate D2E/DX2                !
 ! R19   R(8,9)                  1.226          estimate D2E/DX2                !
 ! R20   R(10,11)                1.4627         estimate D2E/DX2                !
 ! R21   R(10,12)                1.4622         estimate D2E/DX2                !
 ! A1    A(2,1,13)             110.6416         estimate D2E/DX2                !
 ! A2    A(2,1,14)             110.583          estimate D2E/DX2                !
 ! A3    A(2,1,15)             110.7654         estimate D2E/DX2                !
 ! A4    A(13,1,14)            107.1786         estimate D2E/DX2                !
 ! A5    A(13,1,15)            108.7899         estimate D2E/DX2                !
 ! A6    A(14,1,15)            108.7833         estimate D2E/DX2                !
 ! A7    A(1,2,3)              133.6558         estimate D2E/DX2                !
 ! A8    A(1,2,10)             118.1437         estimate D2E/DX2                !
 ! A9    A(3,2,10)             108.2005         estimate D2E/DX2                !
 ! A10   A(2,3,4)              115.3403         estimate D2E/DX2                !
 ! A11   A(2,3,16)             123.0561         estimate D2E/DX2                !
 ! A12   A(4,3,16)             121.6036         estimate D2E/DX2                !
 ! A13   A(3,4,5)              115.1988         estimate D2E/DX2                !
 ! A14   A(3,4,17)             121.7288         estimate D2E/DX2                !
 ! A15   A(5,4,17)             123.0724         estimate D2E/DX2                !
 ! A16   A(4,5,6)              130.3754         estimate D2E/DX2                !
 ! A17   A(4,5,10)             107.9478         estimate D2E/DX2                !
 ! A18   A(6,5,10)             121.6767         estimate D2E/DX2                !
 ! A19   A(5,6,7)              120.9928         estimate D2E/DX2                !
 ! A20   A(5,6,8)              114.3366         estimate D2E/DX2                !
 ! A21   A(5,6,9)              114.3366         estimate D2E/DX2                !
 ! A22   A(7,6,8)              118.8798         estimate D2E/DX2                !
 ! A23   A(7,6,9)              118.8798         estimate D2E/DX2                !
 ! A24   A(6,7,18)             110.916          estimate D2E/DX2                !
 ! A25   A(6,7,19)             109.8588         estimate D2E/DX2                !
 ! A26   A(6,7,20)             110.9781         estimate D2E/DX2                !
 ! A27   A(18,7,19)            108.4433         estimate D2E/DX2                !
 ! A28   A(18,7,20)            108.1216         estimate D2E/DX2                !
 ! A29   A(19,7,20)            108.4418         estimate D2E/DX2                !
 ! A30   A(2,10,5)              93.3125         estimate D2E/DX2                !
 ! A31   A(2,10,11)            110.0045         estimate D2E/DX2                !
 ! A32   A(2,10,12)            109.9808         estimate D2E/DX2                !
 ! A33   A(5,10,11)            110.5077         estimate D2E/DX2                !
 ! A34   A(5,10,12)            110.4887         estimate D2E/DX2                !
 ! A35   A(11,10,12)           119.4451         estimate D2E/DX2                !
 ! D1    D(13,1,2,3)           120.8387         estimate D2E/DX2                !
 ! D2    D(13,1,2,10)          -59.1613         estimate D2E/DX2                !
 ! D3    D(14,1,2,3)          -120.5673         estimate D2E/DX2                !
 ! D4    D(14,1,2,10)           59.4327         estimate D2E/DX2                !
 ! D5    D(15,1,2,3)             0.1121         estimate D2E/DX2                !
 ! D6    D(15,1,2,10)         -179.8879         estimate D2E/DX2                !
 ! D7    D(1,2,3,4)            180.0            estimate D2E/DX2                !
 ! D8    D(1,2,3,16)             0.0            estimate D2E/DX2                !
 ! D9    D(10,2,3,4)             0.0            estimate D2E/DX2                !
 ! D10   D(10,2,3,16)          180.0            estimate D2E/DX2                !
 ! D11   D(1,2,10,5)           180.0            estimate D2E/DX2                !
 ! D12   D(1,2,10,11)          -66.7638         estimate D2E/DX2                !
 ! D13   D(1,2,10,12)           66.7896         estimate D2E/DX2                !
 ! D14   D(3,2,10,5)             0.0            estimate D2E/DX2                !
 ! D15   D(3,2,10,11)          113.2362         estimate D2E/DX2                !
 ! D16   D(3,2,10,12)         -113.2104         estimate D2E/DX2                !
 ! D17   D(2,3,4,5)              0.0            estimate D2E/DX2                !
 ! D18   D(2,3,4,17)           180.0            estimate D2E/DX2                !
 ! D19   D(16,3,4,5)           180.0            estimate D2E/DX2                !
 ! D20   D(16,3,4,17)            0.0            estimate D2E/DX2                !
 ! D21   D(3,4,5,6)            180.0            estimate D2E/DX2                !
 ! D22   D(3,4,5,10)             0.0            estimate D2E/DX2                !
 ! D23   D(17,4,5,6)             0.0            estimate D2E/DX2                !
 ! D24   D(17,4,5,10)          180.0            estimate D2E/DX2                !
 ! D25   D(4,5,6,7)            180.0            estimate D2E/DX2                !
 ! D26   D(4,5,6,8)             27.1217         estimate D2E/DX2                !
 ! D27   D(4,5,6,9)            -27.1217         estimate D2E/DX2                !
 ! D28   D(10,5,6,7)             0.0            estimate D2E/DX2                !
 ! D29   D(10,5,6,8)          -152.8783         estimate D2E/DX2                !
 ! D30   D(10,5,6,9)           152.8783         estimate D2E/DX2                !
 ! D31   D(4,5,10,2)             0.0            estimate D2E/DX2                !
 ! D32   D(4,5,10,11)         -112.7991         estimate D2E/DX2                !
 ! D33   D(4,5,10,12)          112.7691         estimate D2E/DX2                !
 ! D34   D(6,5,10,2)           180.0            estimate D2E/DX2                !
 ! D35   D(6,5,10,11)           67.2009         estimate D2E/DX2                !
 ! D36   D(6,5,10,12)          -67.2309         estimate D2E/DX2                !
 ! D37   D(5,6,7,18)           -60.1232         estimate D2E/DX2                !
 ! D38   D(5,6,7,19)           180.0            estimate D2E/DX2                !
 ! D39   D(5,6,7,20)            60.0856         estimate D2E/DX2                !
 ! D40   D(8,6,7,18)            91.5586         estimate D2E/DX2                !
 ! D41   D(8,6,7,19)           -28.3182         estimate D2E/DX2                !
 ! D42   D(8,6,7,20)          -148.2326         estimate D2E/DX2                !
 ! D43   D(9,6,7,18)           148.1949         estimate D2E/DX2                !
 ! D44   D(9,6,7,19)            28.3182         estimate D2E/DX2                !
 ! D45   D(9,6,7,20)           -91.5963         estimate D2E/DX2                !
 --------------------------------------------------------------------------------
 Trust Radius=3.00D-01 FncErr=1.00D-07 GrdErr=1.00D-06 EigMax=2.50D+02 EigMin=1.00D-04
 Number of steps in this run=    111 maximum allowed number of steps=    120.
 GradGradGradGradGradGradGradGradGradGradGradGradGradGradGradGradGradGrad

 Leave Link  103 at Fri Aug  3 00:36:55 2018, MaxMem=  1073741824 cpu:               0.1 elap:               0.0
 (Enter /shared/apps/gaussian/gaussian-16/g16/l202.exe)
                          Input orientation:                          
 ---------------------------------------------------------------------
 Center     Atomic      Atomic             Coordinates (Angstroms)
 Number     Number       Type             X           Y           Z
 ---------------------------------------------------------------------
      1          6           0       -3.422000    0.294000    0.000000
      2          6           0       -1.989000    0.654000    0.000000
      3          6           0       -1.329000    1.818000    0.000000
      4          6           0        0.137000    1.710000    0.000000
      5          6           0        0.618000    0.456000    0.000000
      6          6           0        1.996000   -0.029000    0.000000
      7          6           0        2.297000   -1.495000    0.000000
      8          7           0        2.967000    0.898000    0.613000
      9          7           0        2.967000    0.898000   -0.613000
     10         16           0       -0.782000   -0.675000    0.000000
     11          8           0       -0.847000   -1.410000    1.263000
     12          8           0       -0.847000   -1.409000   -1.263000
     13          1           0       -3.669000   -0.311000   -0.882000
     14          1           0       -3.669000   -0.307000    0.885000
     15          1           0       -4.047000    1.191000   -0.002000
     16          1           0       -1.829000    2.783000    0.000000
     17          1           0        0.775000    2.590000    0.000000
     18          1           0        1.876000   -1.981000    0.888000
     19          1           0        3.379000   -1.652000    0.000000
     20          1           0        1.876000   -1.982000   -0.887000
 ---------------------------------------------------------------------
                    Distance matrix (angstroms):
                    1          2          3          4          5
     1  C    0.000000
     2  C    1.477528   0.000000
     3  C    2.589059   1.338094   0.000000
     4  C    3.830344   2.373818   1.469973   0.000000
     5  C    4.043247   2.614508   2.376100   1.343085   0.000000
     6  C    5.427619   4.043107   3.803555   2.545585   1.460859
     7  C    5.992285   4.794580   4.911603   3.864922   2.573993
     8  N    6.446697   4.999724   4.435965   3.007327   2.467577
     9  N    6.446697   4.999724   4.435965   3.007327   2.467577
    10  S    2.812216   1.795297   2.552304   2.555932   1.799767
    11  O    3.336077   2.675711   3.499640   3.506825   2.687629
    12  O    3.335566   2.674940   3.498717   3.505936   2.686935
    13  H    1.097706   2.128744   3.284230   4.398636   4.443488
    14  H    1.097923   2.128179   3.282446   4.397403   4.443395
    15  H    1.093269   2.126908   2.789383   4.216067   4.722547
    16  H    2.955126   2.135004   1.086842   2.239751   3.376794
    17  H    4.783976   3.374580   2.241160   1.086943   2.139768
    18  H    5.833779   4.761302   5.049056   4.175661   2.882720
    19  H    7.073932   5.842351   5.848604   4.670504   3.473728
    20  H    5.834017   4.761669   5.049633   4.176333   2.883258
                    6          7          8          9         10
     6  C    0.000000
     7  C    1.496582   0.000000
     8  N    1.475784   2.559515   0.000000
     9  N    1.475784   2.559515   1.226000   0.000000
    10  S    2.852122   3.186321   4.111581   4.111581   0.000000
    11  O    3.403671   3.389267   4.505104   4.836614   1.462744
    12  O    3.403266   3.389292   4.836137   4.504592   1.462241
    13  H    5.740181   6.145969   6.908922   6.750595   3.040590
    14  H    5.740447   6.147172   6.750000   6.908873   3.041943
    15  H    6.164921   6.889190   7.047004   7.046656   3.760610
    16  H    4.747417   5.943497   5.189471   5.189471   3.613028
    17  H    2.889637   4.359324   2.836106   2.836106   3.617247
    18  H    2.147847   1.096349   3.091043   3.425189   3.091787
    19  H    2.132327   1.093331   2.654809   2.654809   4.274161
    20  H    2.148343   1.095983   3.425592   3.091886   3.091922
                   11         12         13         14         15
    11  O    0.000000
    12  O    2.526000   0.000000
    13  H    3.711133   3.051958   0.000000
    14  H    3.053388   3.713757   1.767005   0.000000
    15  H    4.313401   4.311626   1.781373   1.781476   0.000000
    16  H    4.487844   4.486910   3.706260   3.703637   2.730200
    17  H    4.497338   4.496449   5.379857   5.378194   5.020845
    18  H    2.807382   3.516918   6.055479   5.792177   6.777582
    19  H    4.417331   4.417385   7.228451   7.229561   7.951612
    20  H    3.516307   2.807923   5.791312   6.057445   6.777395
                   16         17         18         19         20
    16  H    0.000000
    17  H    2.611142   0.000000
    18  H    6.100104   4.784850   0.000000
    19  H    6.840504   4.977487   1.776455   0.000000
    20  H    6.100739   4.785620   1.775000   1.776141   0.000000
 Stoichiometry    C7H8N2O2S
 Framework group  C1[X(C7H8N2O2S)]
 Deg. of freedom    54
 Full point group                 C1      NOp   1
 Largest Abelian subgroup         C1      NOp   1
 Largest concise Abelian subgroup C1      NOp   1
                         Standard orientation:                         
 ---------------------------------------------------------------------
 Center     Atomic      Atomic             Coordinates (Angstroms)
 Number     Number       Type             X           Y           Z
 ---------------------------------------------------------------------
      1          6           0       -3.422142    0.294057   -0.000021
      2          6           0       -1.989137    0.654038   -0.000021
      3          6           0       -1.329121    1.818029   -0.000021
      4          6           0        0.136877    1.710009   -0.000021
      5          6           0        0.617860    0.456002   -0.000021
      6          6           0        1.995854   -0.029017   -0.000021
      7          6           0        2.296834   -1.495021   -0.000021
      8          7           0        2.966866    0.897970    0.612979
      9          7           0        2.966866    0.897970   -0.613021
     10         16           0       -0.782155   -0.674979   -0.000021
     11          8           0       -0.847165   -1.409978    1.262979
     12          8           0       -0.847165   -1.408978   -1.263021
     13          1           0       -3.669150   -0.310940   -0.882021
     14          1           0       -3.669150   -0.306940    0.884979
     15          1           0       -4.047130    1.191066   -0.002021
     16          1           0       -1.829108    2.783035   -0.000021
     17          1           0        0.774889    2.590000   -0.000021
     18          1           0        1.875827   -1.981015    0.887979
     19          1           0        3.378832   -1.652036   -0.000021
     20          1           0        1.875827   -1.982015   -0.887021
 ---------------------------------------------------------------------
 Rotational constants (GHZ):           1.6748550           0.6777132           0.5505044
 Leave Link  202 at Fri Aug  3 00:36:55 2018, MaxMem=  1073741824 cpu:               0.1 elap:               0.0
 (Enter /shared/apps/gaussian/gaussian-16/g16/l301.exe)
 Standard basis: 6-31+G(d,p) (6D, 7F)
 Ernie: Thresh=  0.10000D-02 Tol=  0.10000D-05 Strict=F.
 There are   272 symmetry adapted cartesian basis functions of A   symmetry.
 There are   272 symmetry adapted basis functions of A   symmetry.
   272 basis functions,   464 primitive gaussians,   272 cartesian basis functions
    48 alpha electrons       48 beta electrons
       nuclear repulsion energy       834.5705117183 Hartrees.
 IExCor= 4235 DFT=T Ex+Corr=M06 ExCW=0 ScaHFX=  0.270000
 ScaDFX=  1.000000  1.000000  1.000000  1.000000 ScalE2=  1.000000  1.000000
 IRadAn=      5 IRanWt=     -1 IRanGd=            0 ICorTp=0 IEmpDi=  4
 NAtoms=   20 NActive=   20 NUniq=   20 SFac= 1.00D+00 NAtFMM=   60 NAOKFM=F Big=F
 Integral buffers will be    131072 words long.
 Regular integral format.
 Two-electron integral symmetry is turned on.
 ------------------------------------------------------------------------------
 Polarizable Continuum Model (PCM)
 =================================
 Model                : PCM.
 Atomic radii         : UFF (Universal Force Field).
 Polarization charges : Total charges.
 Charge compensation  : None.
 Solution method      : On-the-fly selection.
 Cavity type          : Scaled VdW (van der Waals Surface) (Alpha=1.100).
 Cavity algorithm     : GePol (No added spheres)
                        Default sphere list used, NSphG=   20.
                        Lebedev-Laikov grids with approx.  5.0 points / Ang**2.
                        Smoothing algorithm: York/Karplus (Gamma=1.0000).
                        Polarization charges: spherical gaussians, with
                                              point-specific exponents (IZeta= 3).
                        Self-potential: point-specific (ISelfS= 7).
                        Self-field    : sphere-specific E.n sum rule (ISelfD= 2).
 1st derivatives      : Analytical E(r).r(x)/FMM algorithm (CHGder, D1EAlg=3).
                        Cavity 1st derivative terms included.
 Solvent              : Acetonitrile, Eps=  35.688000 Eps(inf)=   1.806874
 ------------------------------------------------------------------------------
 Spheres list:
 ISph  on   Nord     Re0    Alpha      Xe            Ye            Ze
    1   C      1    1.9255  1.100     -3.422142      0.294057     -0.000021
    2   C      2    1.9255  1.100     -1.989137      0.654038     -0.000021
    3   C      3    1.9255  1.100     -1.329121      1.818029     -0.000021
    4   C      4    1.9255  1.100      0.136877      1.710009     -0.000021
    5   C      5    1.9255  1.100      0.617860      0.456002     -0.000021
    6   C      6    1.9255  1.100      1.995854     -0.029017     -0.000021
    7   C      7    1.9255  1.100      2.296834     -1.495021     -0.000021
    8   N      8    1.8300  1.100      2.966866      0.897970      0.612979
    9   N      9    1.8300  1.100      2.966866      0.897970     -0.613021
   10   S     10    2.0175  1.100     -0.782155     -0.674979     -0.000021
   11   O     11    1.7500  1.100     -0.847165     -1.409978      1.262979
   12   O     12    1.7500  1.100     -0.847165     -1.408978     -1.263021
   13   H     13    1.4430  1.100     -3.669150     -0.310940     -0.882021
   14   H     14    1.4430  1.100     -3.669150     -0.306940      0.884979
   15   H     15    1.4430  1.100     -4.047130      1.191066     -0.002021
   16   H     16    1.4430  1.100     -1.829108      2.783035     -0.000021
   17   H     17    1.4430  1.100      0.774889      2.590000     -0.000021
   18   H     18    1.4430  1.100      1.875827     -1.981015      0.887979
   19   H     19    1.4430  1.100      3.378832     -1.652036     -0.000021
   20   H     20    1.4430  1.100      1.875827     -1.982015     -0.887021
 ------------------------------------------------------------------------------
 GePol: Number of generator spheres                  =      20
 GePol: Total number of spheres                      =      20
 GePol: Number of exposed spheres                    =      20 (100.00%)
 GePol: Number of points                             =    1751
 GePol: Average weight of points                     =       0.13
 GePol: Minimum weight of points                     =   0.61D-08
 GePol: Maximum weight of points                     =    0.20577
 GePol: Number of points with low weight             =     104
 GePol: Fraction of low-weight points (<1% of avg)   =       5.94%
 GePol: Cavity surface area                          =    232.860 Ang**2
 GePol: Cavity volume                                =    239.582 Ang**3
 Leave Link  301 at Fri Aug  3 00:36:55 2018, MaxMem=  1073741824 cpu:               1.3 elap:               0.1
 (Enter /shared/apps/gaussian/gaussian-16/g16/l302.exe)
 NPDir=0 NMtPBC=     1 NCelOv=     1 NCel=       1 NClECP=     1 NCelD=      1
         NCelK=      1 NCelE2=     1 NClLst=     1 CellRange=     0.0.
 One-electron integrals computed using PRISM.
 One-electron integral symmetry used in STVInt
 NBasis=   272 RedAO= T EigKep=  2.04D-06  NBF=   272
 NBsUse=   272 1.00D-06 EigRej= -1.00D+00 NBFU=   272
 Precomputing XC quadrature grid using
 IXCGrd= 4 IRadAn=           5 IRanWt=          -1 IRanGd=           0 AccXCQ= 0.00D+00.
 Generated NRdTot=       0 NPtTot=           0 NUsed=           0 NTot=          32
 NSgBfM=   271   271   271   271   271 MxSgAt=    20 MxSgA2=    20.
 Leave Link  302 at Fri Aug  3 00:36:57 2018, MaxMem=  1073741824 cpu:              21.2 elap:               1.4
 (Enter /shared/apps/gaussian/gaussian-16/g16/l303.exe)
 DipDrv:  MaxL=1.
 Leave Link  303 at Fri Aug  3 00:36:57 2018, MaxMem=  1073741824 cpu:               0.5 elap:               0.0
 (Enter /shared/apps/gaussian/gaussian-16/g16/l308.exe)
 Leave Link  308 at Fri Aug  3 00:36:57 2018, MaxMem=  1073741824 cpu:               0.5 elap:               0.1
 (Enter /shared/apps/gaussian/gaussian-16/g16/l401.exe)
 ExpMin= 4.05D-02 ExpMax= 2.19D+04 ExpMxC= 3.30D+03 IAcc=3 IRadAn=         5 AccDes= 0.00D+00
 Harris functional with IExCor= 1009 and IRadAn=       5 diagonalized for initial guess.
 HarFok:  IExCor= 1009 AccDes= 0.00D+00 IRadAn=         5 IDoV= 1 UseB2=F ITyADJ=14
 ICtDFT=  3500011 ScaDFX=  1.000000  1.000000  1.000000  1.000000
 FoFCou: FMM=F IPFlag=           0 FMFlag=      100000 FMFlg1=           0
         NFxFlg=           0 DoJE=T BraDBF=F KetDBF=T FulRan=T
         wScrn=  0.000000 ICntrl=       500 IOpCl=  0 I1Cent=   200000004 NGrid=           0
         NMat0=    1 NMatS0=      1 NMatT0=    0 NMatD0=    1 NMtDS0=    0 NMtDT0=    0
 Petite list used in FoFCou.
 Harris En= -928.930871820144    
 JPrj=0 DoOrth=F DoCkMO=F.
 Leave Link  401 at Fri Aug  3 00:36:58 2018, MaxMem=  1073741824 cpu:              23.0 elap:               1.5
 (Enter /shared/apps/gaussian/gaussian-16/g16/l502.exe)
 Integral symmetry usage will be decided dynamically.
 Closed shell SCF:
 Using DIIS extrapolation, IDIIS=  1040.
 NGot=  1073741824 LenX=  1073586723 LenY=  1073512298
 Requested convergence on RMS density matrix=1.00D-08 within 128 cycles.
 Requested convergence on MAX density matrix=1.00D-06.
 Requested convergence on             energy=1.00D-06.
 No special actions if energy rises.
 Fock matrices will be formed incrementally for  20 cycles.

 Cycle   1  Pass 1  IDiag  1:
 FoFJK:  IHMeth= 1 ICntrl=       0 DoSepK=F KAlg= 0 I1Cent=           0 FoldK=F
 IRaf= 910000000 NMat=       1 IRICut=       1 DoRegI=T DoRafI=F ISym2E= 0 IDoP0=0 IntGTp=1.
 FoFCou: FMM=F IPFlag=           0 FMFlag=      100000 FMFlg1=           0
         NFxFlg=           0 DoJE=F BraDBF=F KetDBF=F FulRan=T
         wScrn=  0.000000 ICntrl=         0 IOpCl=  0 I1Cent=           0 NGrid=           0
         NMat0=    1 NMatS0=      1 NMatT0=    0 NMatD0=    1 NMtDS0=    0 NMtDT0=    0
 Symmetry not used in FoFCou.
 Inv3:  Mode=1 IEnd=     9198003.
 Iteration    1 A*A^-1 deviation from unit magnitude is 6.00D-15 for     96.
 Iteration    1 A*A^-1 deviation from orthogonality  is 4.30D-15 for   1352    241.
 Iteration    1 A^-1*A deviation from unit magnitude is 5.55D-15 for    302.
 Iteration    1 A^-1*A deviation from orthogonality  is 3.72D-15 for   1340    259.
 E= -928.843910831332    
 DIIS: error= 2.79D-02 at cycle   1 NSaved=   1.
 NSaved= 1 IEnMin= 1 EnMin= -928.843910831332     IErMin= 1 ErrMin= 2.79D-02
 ErrMax= 2.79D-02  0.00D+00 EMaxC= 1.00D-01 BMatC= 4.20D-01 BMatP= 4.20D-01
 IDIUse=3 WtCom= 7.21D-01 WtEn= 2.79D-01
 Coeff-Com:  0.100D+01
 Coeff-En:   0.100D+01
 Coeff:      0.100D+01
 Gap=     0.195 Goal=   None    Shift=    0.000
 GapD=    0.195 DampG=1.000 DampE=0.500 DampFc=0.5000 IDamp=-1.
 Damping current iteration by 5.00D-01
 RMSDP=5.60D-02 MaxDP=6.65D+00              OVMax= 2.41D-01

 Cycle   2  Pass 1  IDiag  1:
 RMSU=  2.25D-02    CP:  1.22D+00
 E= -928.964518801881     Delta-E=       -0.120607970549 Rises=F Damp=T
 DIIS: error= 9.41D-03 at cycle   2 NSaved=   2.
 NSaved= 2 IEnMin= 2 EnMin= -928.964518801881     IErMin= 2 ErrMin= 9.41D-03
 ErrMax= 9.41D-03  0.00D+00 EMaxC= 1.00D-01 BMatC= 3.73D-02 BMatP= 4.20D-01
 IDIUse=3 WtCom= 9.06D-01 WtEn= 9.41D-02
 Coeff-Com:  0.181D+00 0.819D+00
 Coeff-En:   0.297D+00 0.703D+00
 Coeff:      0.192D+00 0.808D+00
 Gap=     0.170 Goal=   None    Shift=    0.000
 RMSDP=1.11D-02 MaxDP=7.31D-01 DE=-1.21D-01 OVMax= 1.62D-01

 Cycle   3  Pass 1  IDiag  1:
 RMSU=  9.01D-03    CP:  1.21D+00  1.29D+00
 E= -929.190790080905     Delta-E=       -0.226271279024 Rises=F Damp=F
 DIIS: error= 6.43D-03 at cycle   3 NSaved=   3.
 NSaved= 3 IEnMin= 3 EnMin= -929.190790080905     IErMin= 3 ErrMin= 6.43D-03
 ErrMax= 6.43D-03  0.00D+00 EMaxC= 1.00D-01 BMatC= 1.96D-02 BMatP= 3.73D-02
 IDIUse=3 WtCom= 9.36D-01 WtEn= 6.43D-02
 Coeff-Com:  0.619D-01 0.438D+00 0.500D+00
 Coeff-En:   0.000D+00 0.000D+00 0.100D+01
 Coeff:      0.579D-01 0.410D+00 0.532D+00
 Gap=     0.169 Goal=   None    Shift=    0.000
 RMSDP=6.40D-03 MaxDP=7.39D-01 DE=-2.26D-01 OVMax= 4.13D-02

 Cycle   4  Pass 1  IDiag  1:
 RMSU=  2.92D-03    CP:  1.15D+00  1.14D+00  9.88D-01
 E= -929.206447274763     Delta-E=       -0.015657193858 Rises=F Damp=F
 DIIS: error= 2.23D-03 at cycle   4 NSaved=   4.
 NSaved= 4 IEnMin= 4 EnMin= -929.206447274763     IErMin= 4 ErrMin= 2.23D-03
 ErrMax= 2.23D-03  0.00D+00 EMaxC= 1.00D-01 BMatC= 2.17D-03 BMatP= 1.96D-02
 IDIUse=3 WtCom= 9.78D-01 WtEn= 2.23D-02
 Coeff-Com:  0.358D-02 0.768D-01 0.269D+00 0.651D+00
 Coeff-En:   0.000D+00 0.000D+00 0.697D-01 0.930D+00
 Coeff:      0.350D-02 0.751D-01 0.264D+00 0.657D+00
 Gap=     0.167 Goal=   None    Shift=    0.000
 RMSDP=1.56D-03 MaxDP=1.06D-01 DE=-1.57D-02 OVMax= 1.53D-02

 Cycle   5  Pass 1  IDiag  1:
 RMSU=  8.30D-04    CP:  1.15D+00  1.18D+00  9.72D-01  7.31D-01
 E= -929.208284761017     Delta-E=       -0.001837486254 Rises=F Damp=F
 DIIS: error= 6.82D-04 at cycle   5 NSaved=   5.
 NSaved= 5 IEnMin= 5 EnMin= -929.208284761017     IErMin= 5 ErrMin= 6.82D-04
 ErrMax= 6.82D-04  0.00D+00 EMaxC= 1.00D-01 BMatC= 2.11D-04 BMatP= 2.17D-03
 IDIUse=3 WtCom= 9.93D-01 WtEn= 6.82D-03
 Coeff-Com: -0.323D-02 0.958D-02 0.107D+00 0.355D+00 0.532D+00
 Coeff-En:   0.000D+00 0.000D+00 0.000D+00 0.000D+00 0.100D+01
 Coeff:     -0.320D-02 0.952D-02 0.106D+00 0.353D+00 0.535D+00
 Gap=     0.167 Goal=   None    Shift=    0.000
 RMSDP=4.17D-04 MaxDP=4.04D-02 DE=-1.84D-03 OVMax= 5.70D-03

 Cycle   6  Pass 1  IDiag  1:
 RMSU=  3.25D-04    CP:  1.15D+00  1.18D+00  9.89D-01  7.79D-01  1.04D+00
 E= -929.208475316974     Delta-E=       -0.000190555957 Rises=F Damp=F
 DIIS: error= 1.51D-04 at cycle   6 NSaved=   6.
 NSaved= 6 IEnMin= 6 EnMin= -929.208475316974     IErMin= 6 ErrMin= 1.51D-04
 ErrMax= 1.51D-04  0.00D+00 EMaxC= 1.00D-01 BMatC= 7.34D-06 BMatP= 2.11D-04
 IDIUse=3 WtCom= 9.98D-01 WtEn= 1.51D-03
 Coeff-Com: -0.114D-02-0.248D-02 0.139D-01 0.614D-01 0.184D+00 0.744D+00
 Coeff-En:   0.000D+00 0.000D+00 0.000D+00 0.000D+00 0.000D+00 0.100D+01
 Coeff:     -0.113D-02-0.248D-02 0.139D-01 0.613D-01 0.184D+00 0.745D+00
 Gap=     0.166 Goal=   None    Shift=    0.000
 RMSDP=1.44D-04 MaxDP=1.53D-02 DE=-1.91D-04 OVMax= 1.54D-03

 Cycle   7  Pass 1  IDiag  1:
 RMSU=  7.64D-05    CP:  1.15D+00  1.19D+00  9.94D-01  7.68D-01  1.08D+00
                    CP:  9.82D-01
 E= -929.208482779477     Delta-E=       -0.000007462503 Rises=F Damp=F
 DIIS: error= 5.57D-05 at cycle   7 NSaved=   7.
 NSaved= 7 IEnMin= 7 EnMin= -929.208482779477     IErMin= 7 ErrMin= 5.57D-05
 ErrMax= 5.57D-05  0.00D+00 EMaxC= 1.00D-01 BMatC= 1.34D-06 BMatP= 7.34D-06
 IDIUse=1 WtCom= 1.00D+00 WtEn= 0.00D+00
 Coeff-Com: -0.218D-03-0.231D-02-0.376D-02-0.533D-02 0.223D-01 0.333D+00
 Coeff-Com:  0.656D+00
 Coeff:     -0.218D-03-0.231D-02-0.376D-02-0.533D-02 0.223D-01 0.333D+00
 Coeff:      0.656D+00
 Gap=     0.166 Goal=   None    Shift=    0.000
 RMSDP=4.37D-05 MaxDP=3.21D-03 DE=-7.46D-06 OVMax= 7.41D-04

 Cycle   8  Pass 1  IDiag  1:
 RMSU=  3.23D-05    CP:  1.15D+00  1.19D+00  9.95D-01  7.74D-01  1.08D+00
                    CP:  1.00D+00  7.82D-01
 E= -929.208484139889     Delta-E=       -0.000001360413 Rises=F Damp=F
 DIIS: error= 1.87D-05 at cycle   8 NSaved=   8.
 NSaved= 8 IEnMin= 8 EnMin= -929.208484139889     IErMin= 8 ErrMin= 1.87D-05
 ErrMax= 1.87D-05  0.00D+00 EMaxC= 1.00D-01 BMatC= 1.67D-07 BMatP= 1.34D-06
 IDIUse=1 WtCom= 1.00D+00 WtEn= 0.00D+00
 Coeff-Com:  0.420D-04-0.783D-03-0.325D-02-0.934D-02-0.139D-01 0.749D-01
 Coeff-Com:  0.305D+00 0.647D+00
 Coeff:      0.420D-04-0.783D-03-0.325D-02-0.934D-02-0.139D-01 0.749D-01
 Coeff:      0.305D+00 0.647D+00
 Gap=     0.166 Goal=   None    Shift=    0.000
 RMSDP=2.35D-05 MaxDP=2.31D-03 DE=-1.36D-06 OVMax= 1.82D-04

 Cycle   9  Pass 1  IDiag  1:
 RMSU=  1.01D-05    CP:  1.15D+00  1.19D+00  9.95D-01  7.74D-01  1.09D+00
                    CP:  1.01D+00  9.03D-01  9.01D-01
 E= -929.208484284190     Delta-E=       -0.000000144300 Rises=F Damp=F
 DIIS: error= 8.55D-06 at cycle   9 NSaved=   9.
 NSaved= 9 IEnMin= 9 EnMin= -929.208484284190     IErMin= 9 ErrMin= 8.55D-06
 ErrMax= 8.55D-06  0.00D+00 EMaxC= 1.00D-01 BMatC= 4.12D-08 BMatP= 1.67D-07
 IDIUse=1 WtCom= 1.00D+00 WtEn= 0.00D+00
 Coeff-Com:  0.687D-04 0.291D-05-0.947D-03-0.370D-02-0.121D-01-0.947D-02
 Coeff-Com:  0.709D-01 0.370D+00 0.586D+00
 Coeff:      0.687D-04 0.291D-05-0.947D-03-0.370D-02-0.121D-01-0.947D-02
 Coeff:      0.709D-01 0.370D+00 0.586D+00
 Gap=     0.166 Goal=   None    Shift=    0.000
 RMSDP=7.07D-06 MaxDP=6.38D-04 DE=-1.44D-07 OVMax= 1.74D-04

 Cycle  10  Pass 1  IDiag  1:
 RMSU=  3.45D-06    CP:  1.15D+00  1.19D+00  9.95D-01  7.74D-01  1.09D+00
                    CP:  1.01D+00  8.89D-01  9.48D-01  9.90D-01
 E= -929.208484331747     Delta-E=       -0.000000047557 Rises=F Damp=F
 DIIS: error= 2.54D-06 at cycle  10 NSaved=  10.
 NSaved=10 IEnMin=10 EnMin= -929.208484331747     IErMin=10 ErrMin= 2.54D-06
 ErrMax= 2.54D-06  0.00D+00 EMaxC= 1.00D-01 BMatC= 3.89D-09 BMatP= 4.12D-08
 IDIUse=1 WtCom= 1.00D+00 WtEn= 0.00D+00
 Coeff-Com:  0.170D-04 0.615D-04 0.280D-04-0.213D-03-0.303D-02-0.103D-01
 Coeff-Com: -0.964D-02 0.247D-01 0.245D+00 0.754D+00
 Coeff:      0.170D-04 0.615D-04 0.280D-04-0.213D-03-0.303D-02-0.103D-01
 Coeff:     -0.964D-02 0.247D-01 0.245D+00 0.754D+00
 Gap=     0.166 Goal=   None    Shift=    0.000
 RMSDP=2.60D-06 MaxDP=1.36D-04 DE=-4.76D-08 OVMax= 2.92D-05

 Cycle  11  Pass 1  IDiag  1:
 RMSU=  1.30D-06    CP:  1.15D+00  1.19D+00  9.95D-01  7.74D-01  1.09D+00
                    CP:  1.01D+00  9.00D-01  9.78D-01  1.10D+00  1.10D+00
 E= -929.208484335739     Delta-E=       -0.000000003992 Rises=F Damp=F
 DIIS: error= 7.60D-07 at cycle  11 NSaved=  11.
 NSaved=11 IEnMin=11 EnMin= -929.208484335739     IErMin=11 ErrMin= 7.60D-07
 ErrMax= 7.60D-07  0.00D+00 EMaxC= 1.00D-01 BMatC= 4.14D-10 BMatP= 3.89D-09
 IDIUse=1 WtCom= 1.00D+00 WtEn= 0.00D+00
 Coeff-Com:  0.181D-05 0.276D-04 0.112D-03 0.274D-03-0.247D-03-0.338D-02
 Coeff-Com: -0.117D-01-0.351D-01 0.683D-01 0.333D+00 0.649D+00
 Coeff:      0.181D-05 0.276D-04 0.112D-03 0.274D-03-0.247D-03-0.338D-02
 Coeff:     -0.117D-01-0.351D-01 0.683D-01 0.333D+00 0.649D+00
 Gap=     0.166 Goal=   None    Shift=    0.000
 RMSDP=6.72D-07 MaxDP=3.52D-05 DE=-3.99D-09 OVMax= 1.27D-05

 Cycle  12  Pass 1  IDiag  1:
 RMSU=  4.11D-07    CP:  1.15D+00  1.19D+00  9.95D-01  7.74D-01  1.09D+00
                    CP:  1.01D+00  9.03D-01  9.88D-01  1.12D+00  1.13D+00
                    CP:  1.10D+00
 E= -929.208484336221     Delta-E=       -0.000000000483 Rises=F Damp=F
 DIIS: error= 4.44D-07 at cycle  12 NSaved=  12.
 NSaved=12 IEnMin=12 EnMin= -929.208484336221     IErMin=12 ErrMin= 4.44D-07
 ErrMax= 4.44D-07  0.00D+00 EMaxC= 1.00D-01 BMatC= 6.86D-11 BMatP= 4.14D-10
 IDIUse=1 WtCom= 1.00D+00 WtEn= 0.00D+00
 Coeff-Com: -0.400D-06 0.443D-05 0.500D-04 0.142D-03 0.220D-03-0.127D-03
 Coeff-Com: -0.375D-02-0.197D-01 0.878D-02 0.445D-01 0.301D+00 0.669D+00
 Coeff:     -0.400D-06 0.443D-05 0.500D-04 0.142D-03 0.220D-03-0.127D-03
 Coeff:     -0.375D-02-0.197D-01 0.878D-02 0.445D-01 0.301D+00 0.669D+00
 Gap=     0.166 Goal=   None    Shift=    0.000
 RMSDP=2.70D-07 MaxDP=2.31D-05 DE=-4.83D-10 OVMax= 4.06D-06

 Cycle  13  Pass 1  IDiag  1:
 RMSU=  1.19D-07    CP:  1.15D+00  1.19D+00  9.95D-01  7.74D-01  1.09D+00
                    CP:  1.01D+00  9.03D-01  9.91D-01  1.13D+00  1.15D+00
                    CP:  1.18D+00  1.13D+00
 E= -929.208484336253     Delta-E=       -0.000000000032 Rises=F Damp=F
 DIIS: error= 2.91D-07 at cycle  13 NSaved=  13.
 NSaved=13 IEnMin=13 EnMin= -929.208484336253     IErMin=13 ErrMin= 2.91D-07
 ErrMax= 2.91D-07  0.00D+00 EMaxC= 1.00D-01 BMatC= 2.87D-11 BMatP= 6.86D-11
 IDIUse=1 WtCom= 1.00D+00 WtEn= 0.00D+00
 Coeff-Com: -0.721D-06-0.374D-05 0.121D-04 0.417D-04 0.243D-03 0.743D-03
 Coeff-Com:  0.474D-05-0.660D-02-0.106D-01-0.575D-01 0.532D-01 0.478D+00
 Coeff-Com:  0.543D+00
 Coeff:     -0.721D-06-0.374D-05 0.121D-04 0.417D-04 0.243D-03 0.743D-03
 Coeff:      0.474D-05-0.660D-02-0.106D-01-0.575D-01 0.532D-01 0.478D+00
 Coeff:      0.543D+00
 Gap=     0.166 Goal=   None    Shift=    0.000
 RMSDP=1.62D-07 MaxDP=1.31D-05 DE=-3.18D-11 OVMax= 1.81D-06

 Cycle  14  Pass 1  IDiag  1:
 RMSU=  5.25D-08    CP:  1.15D+00  1.19D+00  9.95D-01  7.74D-01  1.09D+00
                    CP:  1.00D+00  9.04D-01  9.92D-01  1.13D+00  1.16D+00
                    CP:  1.23D+00  1.18D+00  1.09D+00
 E= -929.208484336232     Delta-E=        0.000000000021 Rises=F Damp=F
 DIIS: error= 2.53D-08 at cycle  14 NSaved=  14.
 NSaved=14 IEnMin=13 EnMin= -929.208484336253     IErMin=14 ErrMin= 2.53D-08
 ErrMax= 2.53D-08  0.00D+00 EMaxC= 1.00D-01 BMatC= 4.40D-13 BMatP= 2.87D-11
 IDIUse=1 WtCom= 1.00D+00 WtEn= 0.00D+00
 Coeff-Com: -0.171D-06-0.138D-05 0.776D-07 0.640D-06 0.540D-04 0.241D-03
 Coeff-Com:  0.326D-03-0.476D-03-0.331D-02-0.215D-01-0.639D-02 0.980D-01
 Coeff-Com:  0.174D+00 0.760D+00
 Coeff:     -0.171D-06-0.138D-05 0.776D-07 0.640D-06 0.540D-04 0.241D-03
 Coeff:      0.326D-03-0.476D-03-0.331D-02-0.215D-01-0.639D-02 0.980D-01
 Coeff:      0.174D+00 0.760D+00
 Gap=     0.166 Goal=   None    Shift=    0.000
 RMSDP=8.20D-08 MaxDP=1.05D-05 DE= 2.09D-11 OVMax= 4.74D-07

 Cycle  15  Pass 1  IDiag  1:
 RMSU=  1.87D-08    CP:  1.15D+00  1.19D+00  9.95D-01  7.74D-01  1.09D+00
                    CP:  1.00D+00  9.04D-01  9.93D-01  1.13D+00  1.16D+00
                    CP:  1.25D+00  1.22D+00  1.12D+00  1.03D+00
 E= -929.208484336298     Delta-E=       -0.000000000065 Rises=F Damp=F
 DIIS: error= 1.47D-08 at cycle  15 NSaved=  15.
 NSaved=15 IEnMin=15 EnMin= -929.208484336298     IErMin=15 ErrMin= 1.47D-08
 ErrMax= 1.47D-08  0.00D+00 EMaxC= 1.00D-01 BMatC= 9.99D-14 BMatP= 4.40D-13
 IDIUse=1 WtCom= 1.00D+00 WtEn= 0.00D+00
 Coeff-Com: -0.466D-07-0.360D-06-0.111D-05-0.364D-05 0.670D-05 0.626D-04
 Coeff-Com:  0.184D-03 0.397D-03-0.784D-03-0.599D-02-0.905D-02 0.499D-02
 Coeff-Com:  0.392D-01 0.381D+00 0.590D+00
 Coeff:     -0.466D-07-0.360D-06-0.111D-05-0.364D-05 0.670D-05 0.626D-04
 Coeff:      0.184D-03 0.397D-03-0.784D-03-0.599D-02-0.905D-02 0.499D-02
 Coeff:      0.392D-01 0.381D+00 0.590D+00
 Gap=     0.166 Goal=   None    Shift=    0.000
 RMSDP=3.75D-08 MaxDP=5.04D-06 DE=-6.55D-11 OVMax= 1.61D-07

 Cycle  16  Pass 1  IDiag  1:
 RMSU=  5.23D-09    CP:  1.15D+00  1.19D+00  9.95D-01  7.74D-01  1.09D+00
                    CP:  1.00D+00  9.04D-01  9.93D-01  1.13D+00  1.16D+00
                    CP:  1.25D+00  1.23D+00  1.17D+00  1.10D+00  1.10D+00
 E= -929.208484336293     Delta-E=        0.000000000005 Rises=F Damp=F
 DIIS: error= 5.80D-09 at cycle  16 NSaved=  16.
 NSaved=16 IEnMin=15 EnMin= -929.208484336298     IErMin=16 ErrMin= 5.80D-09
 ErrMax= 5.80D-09  0.00D+00 EMaxC= 1.00D-01 BMatC= 1.65D-14 BMatP= 9.99D-14
 IDIUse=1 WtCom= 1.00D+00 WtEn= 0.00D+00
 Coeff-Com: -0.957D-08 0.738D-07-0.538D-06-0.187D-05-0.583D-05-0.133D-04
 Coeff-Com:  0.307D-04 0.280D-03 0.186D-03 0.804D-03-0.328D-02-0.141D-01
 Coeff-Com: -0.867D-02 0.710D-01 0.315D+00 0.638D+00
 Coeff:     -0.957D-08 0.738D-07-0.538D-06-0.187D-05-0.583D-05-0.133D-04
 Coeff:      0.307D-04 0.280D-03 0.186D-03 0.804D-03-0.328D-02-0.141D-01
 Coeff:     -0.867D-02 0.710D-01 0.315D+00 0.638D+00
 Gap=     0.166 Goal=   None    Shift=    0.000
 RMSDP=1.97D-08 MaxDP=2.50D-06 DE= 4.77D-12 OVMax= 7.35D-08

 Cycle  17  Pass 1  IDiag  1:
 RMSU=  2.84D-09    CP:  1.15D+00  1.19D+00  9.95D-01  7.74D-01  1.09D+00
                    CP:  1.00D+00  9.04D-01  9.93D-01  1.13D+00  1.16D+00
                    CP:  1.25D+00  1.24D+00  1.19D+00  1.13D+00  1.14D+00
                    CP:  1.02D+00
 E= -929.208484336293     Delta-E=        0.000000000000 Rises=F Damp=F
 DIIS: error= 2.29D-09 at cycle  17 NSaved=  17.
 NSaved=17 IEnMin=15 EnMin= -929.208484336298     IErMin=17 ErrMin= 2.29D-09
 ErrMax= 2.29D-09  0.00D+00 EMaxC= 1.00D-01 BMatC= 1.63D-15 BMatP= 1.65D-14
 IDIUse=1 WtCom= 1.00D+00 WtEn= 0.00D+00
 Coeff-Com: -0.390D-08 0.723D-07-0.214D-06-0.684D-06-0.329D-05-0.125D-04
 Coeff-Com: -0.940D-06 0.109D-03 0.115D-03 0.883D-03-0.899D-03-0.734D-02
 Coeff-Com: -0.758D-02-0.273D-02 0.842D-01 0.286D+00 0.648D+00
 Coeff:     -0.390D-08 0.723D-07-0.214D-06-0.684D-06-0.329D-05-0.125D-04
 Coeff:     -0.940D-06 0.109D-03 0.115D-03 0.883D-03-0.899D-03-0.734D-02
 Coeff:     -0.758D-02-0.273D-02 0.842D-01 0.286D+00 0.648D+00
 Gap=     0.166 Goal=   None    Shift=    0.000
 RMSDP=7.41D-09 MaxDP=9.34D-07 DE= 2.27D-13 OVMax= 3.26D-08

 Error on total polarization charges =  0.01265
 SCF Done:  E(RM06) =  -929.208484336     A.U. after   17 cycles
            NFock= 17  Conv=0.74D-08     -V/T= 2.0074
 KE= 9.223415065088D+02 PE=-3.849463315707D+03 EE= 1.163342813144D+03
 Leave Link  502 at Fri Aug  3 00:38:27 2018, MaxMem=  1073741824 cpu:            1406.6 elap:              89.0
 (Enter /shared/apps/gaussian/gaussian-16/g16/l801.exe)
 DoSCS=F DFT=T ScalE2(SS,OS)=  1.000000  1.000000
 ExpMin= 4.05D-02 ExpMax= 2.19D+04 ExpMxC= 3.30D+03 IAcc=3 IRadAn=         5 AccDes= 0.00D+00
 HarFok:  IExCor=  205 AccDes= 0.00D+00 IRadAn=         5 IDoV=-2 UseB2=F ITyADJ=14
 ICtDFT= 12500011 ScaDFX=  1.000000  1.000000  1.000000  1.000000
 Largest valence mixing into a core orbital is  1.59D-04
 Largest core mixing into a valence orbital is  2.72D-05
 Range of M.O.s used for correlation:    17   272
 NBasis=   272 NAE=    48 NBE=    48 NFC=    16 NFV=     0
 NROrb=    256 NOA=    32 NOB=    32 NVA=   224 NVB=   224

 **** Warning!!: The largest alpha MO coefficient is  0.16798215D+03

 Leave Link  801 at Fri Aug  3 00:38:28 2018, MaxMem=  1073741824 cpu:               1.6 elap:               0.1
 (Enter /shared/apps/gaussian/gaussian-16/g16/l914.exe)
 RHF ground state
 Two-electron integrals replicated using symmetry.
 MDV=  1073741824 DFT=T DoStab=F Mixed=T DoRPA=T DoScal=F NonHer=T
 NEqPCM:  Using equilibrium solvation (IEInf=0, Eps=  35.6880, EpsInf=   1.8069)
 Making orbital integer symmetry assigments:
 Orbital symmetries:
       Occupied  (A) (A) (A) (A) (A) (A) (A) (A) (A) (A) (A) (A)
                 (A) (A) (A) (A) (A) (A) (A) (A) (A) (A) (A) (A)
                 (A) (A) (A) (A) (A) (A) (A) (A) (A) (A) (A) (A)
                 (A) (A) (A) (A) (A) (A) (A) (A) (A) (A) (A) (A)
       Virtual   (A) (A) (A) (A) (A) (A) (A) (A) (A) (A) (A) (A)
                 (A) (A) (A) (A) (A) (A) (A) (A) (A) (A) (A) (A)
                 (A) (A) (A) (A) (A) (A) (A) (A) (A) (A) (A) (A)
                 (A) (A) (A) (A) (A) (A) (A) (A) (A) (A) (A) (A)
                 (A) (A) (A) (A) (A) (A) (A) (A) (A) (A) (A) (A)
                 (A) (A) (A) (A) (A) (A) (A) (A) (A) (A) (A) (A)
                 (A) (A) (A) (A) (A) (A) (A) (A) (A) (A) (A) (A)
                 (A) (A) (A) (A) (A) (A) (A) (A) (A) (A) (A) (A)
                 (A) (A) (A) (A) (A) (A) (A) (A) (A) (A) (A) (A)
                 (A) (A) (A) (A) (A) (A) (A) (A) (A) (A) (A) (A)
                 (A) (A) (A) (A) (A) (A) (A) (A) (A) (A) (A) (A)
                 (A) (A) (A) (A) (A) (A) (A) (A) (A) (A) (A) (A)
                 (A) (A) (A) (A) (A) (A) (A) (A) (A) (A) (A) (A)
                 (A) (A) (A) (A) (A) (A) (A) (A) (A) (A) (A) (A)
                 (A) (A) (A) (A) (A) (A) (A) (A) (A) (A) (A) (A)
                 (A) (A) (A) (A) (A) (A) (A) (A) (A) (A) (A) (A)
                 (A) (A) (A) (A) (A) (A) (A) (A) (A) (A) (A) (A)
                 (A) (A) (A) (A) (A) (A) (A) (A) (A) (A) (A) (A)
                 (A) (A) (A) (A) (A) (A) (A) (A)
    12 initial guesses have been made.
 Convergence on wavefunction:    0.000001000000000
 Davidson Disk Diagonalization:  ConvIn= 1.00D-06 SkipCon=T Conv= 1.00D-06.
 Max sub-space:  2000 roots to seek:    12 dimension of matrix:        14336
 Iteration     1 Dimension    12 NMult     0 NNew     12
 CISAX will form    12 AO SS matrices at one time.
 NMat=    12 NSing=    12 JSym2X= 0.
 FoFJK:  IHMeth= 1 ICntrl=       0 DoSepK=F KAlg= 0 I1Cent=           0 FoldK=F
 IRaf= 910000000 NMat=      24 IRICut=      30 DoRegI=T DoRafI=T ISym2E= 0 IDoP0=0 IntGTp=1.
 FoFCou: FMM=F IPFlag=           0 FMFlag=      100000 FMFlg1=           0
         NFxFlg=           0 DoJE=F BraDBF=F KetDBF=F FulRan=T
         wScrn=  0.000000 ICntrl=         0 IOpCl=  0 I1Cent=           0 NGrid=           0
         NMat0=   24 NMatS0=     12 NMatT0=    0 NMatD0=   24 NMtDS0=    0 NMtDT0=    0
 Symmetry not used in FoFCou.
 Raff kept on since  90.73% of shell-pairs survive, threshold=   0.20 IRatSp=91.
 New state      1 was old state      2
 New state      2 was old state      1
 New state      3 was old state      4
 Excitation Energies [eV] at current iteration:
 Root      1 :     3.109255170508145
 Root      2 :     4.061051738386575
 Root      3 :     4.841827500573653
 Root      4 :     5.001048437981253
 Root      5 :     5.579490202969871
 Root      6 :     5.711329720801699
 Root      7 :     5.734629766191904
 Root      8 :     5.739482241700628
 Root      9 :     5.944841827472946
 Root     10 :     6.073534146717812
 Root     11 :     6.267240989462166
 Root     12 :     6.353675819688967
 Iteration     2 Dimension    18 NMult    12 NNew      6
 CISAX will form     6 AO SS matrices at one time.
 NMat=     6 NSing=     6 JSym2X= 0.
 Root      1 not converged, maximum delta is    0.070505788713575
 Root      2 not converged, maximum delta is    0.111577635039932
 Root      3 not converged, maximum delta is    0.014076918587947
 Excitation Energies [eV] at current iteration:
 Root      1 :     2.994106442520655   Change is   -0.115148727987490
 Root      2 :     3.511904963542450   Change is   -0.549146774844125
 Root      3 :     4.780029512675174   Change is   -0.061797987898478
 Iteration     3 Dimension    24 NMult    18 NNew      6
 CISAX will form     6 AO SS matrices at one time.
 NMat=     6 NSing=     6 JSym2X= 0.
 Root      1 not converged, maximum delta is    0.006939465368249
 Root      2 not converged, maximum delta is    0.009571649015763
 Root      3 not converged, maximum delta is    0.004860549944079
 Excitation Energies [eV] at current iteration:
 Root      1 :     2.984482567414618   Change is   -0.009623875106037
 Root      2 :     3.493493874825395   Change is   -0.018411088717055
 Root      3 :     4.772257352045625   Change is   -0.007772160629549
 Iteration     4 Dimension    30 NMult    24 NNew      6
 CISAX will form     6 AO SS matrices at one time.
 NMat=     6 NSing=     6 JSym2X= 0.
 Root      1 not converged, maximum delta is    0.001202876115032
 Root      2 not converged, maximum delta is    0.003110660301626
 Root      3 not converged, maximum delta is    0.001724098060578
 Excitation Energies [eV] at current iteration:
 Root      1 :     2.983585197382460   Change is   -0.000897370032158
 Root      2 :     3.490121159985838   Change is   -0.003372714839557
 Root      3 :     4.771335273681931   Change is   -0.000922078363694
 Iteration     5 Dimension    36 NMult    30 NNew      6
 CISAX will form     6 AO SS matrices at one time.
 NMat=     6 NSing=     6 JSym2X= 0.
 Root      1 not converged, maximum delta is    0.001075238261589
 Root      2 not converged, maximum delta is    0.000484476162150
 Root      3 not converged, maximum delta is    0.000951348026104
 Excitation Energies [eV] at current iteration:
 Root      1 :     2.983460804919789   Change is   -0.000124392462671
 Root      2 :     3.489898454330046   Change is   -0.000222705655791
 Root      3 :     4.771219203342495   Change is   -0.000116070339436
 Iteration     6 Dimension    42 NMult    36 NNew      6
 CISAX will form     6 AO SS matrices at one time.
 NMat=     6 NSing=     6 JSym2X= 0.
 Root      1 not converged, maximum delta is    0.000213195422942
 Root      2 not converged, maximum delta is    0.000264413695343
 Root      3 not converged, maximum delta is    0.000407396428293
 Excitation Energies [eV] at current iteration:
 Root      1 :     2.983453091640604   Change is   -0.000007713279185
 Root      2 :     3.489879473264753   Change is   -0.000018981065294
 Root      3 :     4.771199747353775   Change is   -0.000019455988721
 Iteration     7 Dimension    48 NMult    42 NNew      6
 CISAX will form     6 AO SS matrices at one time.
 NMat=     6 NSing=     6 JSym2X= 0.
 Root      1 not converged, maximum delta is    0.000023895379378
 Root      2 not converged, maximum delta is    0.000044476528192
 Root      3 not converged, maximum delta is    0.000180168017614
 Excitation Energies [eV] at current iteration:
 Root      1 :     2.983452585967609   Change is   -0.000000505672995
 Root      2 :     3.489878173995383   Change is   -0.000001299269369
 Root      3 :     4.771197464628878   Change is   -0.000002282724897
 Iteration     8 Dimension    54 NMult    48 NNew      6
 CISAX will form     6 AO SS matrices at one time.
 NMat=     6 NSing=     6 JSym2X= 0.
 Root      1 not converged, maximum delta is    0.000006203243180
 Root      2 not converged, maximum delta is    0.000018512799288
 Root      3 not converged, maximum delta is    0.000046658547922
 Excitation Energies [eV] at current iteration:
 Root      1 :     2.983452550019414   Change is   -0.000000035948195
 Root      2 :     3.489878061237808   Change is   -0.000000112757576
 Root      3 :     4.771197228071795   Change is   -0.000000236557083
 Iteration     9 Dimension    60 NMult    54 NNew      6
 CISAX will form     6 AO SS matrices at one time.
 NMat=     6 NSing=     6 JSym2X= 0.
 Root      1 not converged, maximum delta is    0.000001681321745
 Root      2 not converged, maximum delta is    0.000003745603250
 Root      3 not converged, maximum delta is    0.000016470977542
 Excitation Energies [eV] at current iteration:
 Root      1 :     2.983452547858894   Change is   -0.000000002160520
 Root      2 :     3.489878054356586   Change is   -0.000000006881222
 Root      3 :     4.771197193699240   Change is   -0.000000034372555
 Iteration    10 Dimension    66 NMult    60 NNew      6
 CISAX will form     6 AO SS matrices at one time.
 NMat=     6 NSing=     6 JSym2X= 0.
 Root      1 has converged.
 Root      2 has converged.
 Root      3 not converged, maximum delta is    0.000005271581940
 Excitation Energies [eV] at current iteration:
 Root      1 :     2.983452547773999   Change is   -0.000000000084895
 Root      2 :     3.489878053890130   Change is   -0.000000000466456
 Root      3 :     4.771197189603163   Change is   -0.000000004096077
 Iteration    11 Dimension    68 NMult    66 NNew      2
 CISAX will form     2 AO SS matrices at one time.
 NMat=     2 NSing=     2 JSym2X= 0.
 Root      1 has converged.
 Root      2 has converged.
 Root      3 not converged, maximum delta is    0.000002029786257
 Excitation Energies [eV] at current iteration:
 Root      1 :     2.983452547773944   Change is   -0.000000000000055
 Root      2 :     3.489878053889895   Change is   -0.000000000000236
 Root      3 :     4.771197189096775   Change is   -0.000000000506389
 Iteration    12 Dimension    70 NMult    68 NNew      2
 CISAX will form     2 AO SS matrices at one time.
 NMat=     2 NSing=     2 JSym2X= 0.
 Root      1 has converged.
 Root      2 has converged.
 Root      3 has converged.
 Excitation Energies [eV] at current iteration:
 Root      1 :     2.983452547773861   Change is   -0.000000000000083
 Root      2 :     3.489878053889730   Change is   -0.000000000000165
 Root      3 :     4.771197189031662   Change is   -0.000000000065112
 Convergence achieved on expansion vectors.
 ***********************************************************************
 Excited states from <AA,BB:AA,BB> singles matrix:
 ***********************************************************************
 
 1PDM for each excited state written to RWF  633
 Ground to excited state transition densities written to RWF  633
 Ground to excited state transition electric dipole moments (Au):
       state          X           Y           Z        Dip. S.      Osc.
         1        -0.6102     -0.0394      0.0001      0.3739      0.0273
         2         1.4876     -0.0256     -0.0002      2.2136      0.1893
         3        -0.0009     -0.0003     -0.0141      0.0002      0.0000
 Ground to excited state transition velocity dipole moments (Au):
       state          X           Y           Z        Dip. S.      Osc.
         1         0.0529      0.0126     -0.0000      0.0030      0.0180
         2        -0.1970      0.0049      0.0000      0.0388      0.2019
         3         0.0002      0.0000      0.0032      0.0000      0.0000
 Ground to excited state transition magnetic dipole moments (Au):
       state          X           Y           Z
         1        -0.0000     -0.0000      0.6824
         2        -0.0001      0.0002      1.3159
         3         0.0023     -0.0407     -0.0012
 Ground to excited state transition velocity quadrupole moments (Au):
       state          XX          YY          ZZ          XY          XZ          YZ
         1        -0.2360      0.1284      0.0105      0.1189      0.0000     -0.0000
         2        -0.0962      0.0267     -0.0052     -0.0823     -0.0003      0.0000
         3        -0.0003      0.0001      0.0000     -0.0003      0.0253     -0.0333
 <0|del|b> * <b|rxdel|0> + <0|del|b> * <b|delr+rdel|0>
 Rotatory Strengths (R) in cgs (10**-40 erg-esu-cm/Gauss)
       state          XX          YY          ZZ    R(velocity)    E-M Angle
         1        -0.0212     -0.0191     -0.0001     -0.0135       90.00
         2         0.0936      0.1320      0.0465      0.0907       90.00
         3        -0.0143     -0.0158      0.0101     -0.0067       90.00
 1/2[<0|r|b>*<b|rxdel|0> + (<0|rxdel|b>*<b|r|0>)*]
 Rotatory Strengths (R) in cgs (10**-40 erg-esu-cm/Gauss)
       state          XX          YY          ZZ     R(length)
         1        -0.0084     -0.0013     -0.0294     -0.0130
         2         0.0778      0.0042      0.1789      0.0870
         3         0.0015     -0.0073     -0.0121     -0.0060
  1/2[<0|del|b>*<b|r|0> + (<0|r|b>*<b|del|0>)*] (Au)
       state          X           Y           Z        Dip. S.   Osc.(frdel)
         1        -0.0323     -0.0005     -0.0000      0.0328      0.0218
         2        -0.2931     -0.0001     -0.0000      0.2932      0.1955
         3        -0.0000     -0.0000     -0.0000      0.0000      0.0000

 Excitation energies and oscillator strengths:
 
 Excited State   1:      Singlet-A      2.9835 eV  415.57 nm  f=0.0273  <S**2>=0.000
      47 -> 49        -0.10670
      47 -> 50         0.21163
      48 -> 49        -0.41693
      48 -> 50         0.51629
 This state for optimization and/or second-order correction.
 Total Energy, E(TD-HF/TD-DFT) =  -929.098844473    
 Copying the excited state density for this state as the 1-particle RhoCI density.
 
 Excited State   2:      Singlet-A      3.4899 eV  355.27 nm  f=0.1893  <S**2>=0.000
      48 -> 49         0.55359
      48 -> 50         0.43076
 
 Excited State   3:      Singlet-A      4.7712 eV  259.86 nm  f=0.0000  <S**2>=0.000
      46 -> 49         0.66136
      46 -> 50         0.24096
 SavETr:  write IOETrn=   770 NScale= 10 NData=  16 NLR=1 NState=    3 LETran=      64.
 The selected state is a singlet.
 CISGrd: IGrad=2 NXY=2 DFT=T
 CISAX will form     1 AO SS matrices at one time.
 NMat=     1 NSing=     1 JSym2X= 0.
 GePol: Maximum number of non-zero 1st derivatives   =     220
 Leave Link  914 at Fri Aug  3 00:45:19 2018, MaxMem=  1073741824 cpu:            6570.8 elap:             411.8
 (Enter /shared/apps/gaussian/gaussian-16/g16/l1002.exe)
 Minotr:  Closed shell wavefunction.
          Computing CIS/TDA/TD derivatives.
          Using Z-Vector for PSCF gradient.
          Skipping F1 and S1 gradient terms here.
          IDoAtm=11111111111111111111
 NEqPCM:  Using equilibrium solvation (IEInf=0, Eps=  35.6880, EpsInf=   1.8069)
          Frozen-core window.
          Direct CPHF calculation.
          Differentiating once with respect to electric field.
                with respect to dipole field.
          Differentiating once with respect to nuclear coordinates.
          Requested convergence is 1.0D-10 RMS, and 1.0D-09 maximum.
          NewPWx=F KeepS1=T KeepF1=T KeepIn=T MapXYZ=F SortEE=F KeepMc=T.
 Keep R1 ints in memory in canonical form, NReq=706951133.
 FoFCou: FMM=F IPFlag=           0 FMFlag=           0 FMFlg1=           0
         NFxFlg=           0 DoJE=F BraDBF=F KetDBF=F FulRan=T
         wScrn=  0.000000 ICntrl=       600 IOpCl=  0 I1Cent=           0 NGrid=           0
         NMat0=    1 NMatS0=  37128 NMatT0=    0 NMatD0=    1 NMtDS0=    0 NMtDT0=    0
 Symmetry not used in FoFCou.
 Two-electron integral symmetry not used.
          MDV=    1073741824 using IRadAn=       5.
          Solving linear equations separately, MaxMat=       0.
          There are     1 degrees of freedom in the 1st order CPHF.  IDoFFX=0 NUNeed=     1.
 LinEq1:  Iter=  0 NonCon=     1 RMS=9.00D-03 Max=3.75D-01 NDo=     1
 AX will form     1 AO Fock derivatives at one time.
 LinEq1:  Iter=  1 NonCon=     1 RMS=3.01D-03 Max=1.41D-01 NDo=     1
 LinEq1:  Iter=  2 NonCon=     1 RMS=2.60D-03 Max=1.56D-01 NDo=     1
 LinEq1:  Iter=  3 NonCon=     1 RMS=9.28D-04 Max=2.53D-02 NDo=     1
 LinEq1:  Iter=  4 NonCon=     1 RMS=6.01D-04 Max=2.06D-02 NDo=     1
 LinEq1:  Iter=  5 NonCon=     1 RMS=2.31D-04 Max=8.42D-03 NDo=     1
 LinEq1:  Iter=  6 NonCon=     1 RMS=1.46D-04 Max=6.15D-03 NDo=     1
 LinEq1:  Iter=  7 NonCon=     1 RMS=7.60D-05 Max=1.58D-03 NDo=     1
 LinEq1:  Iter=  8 NonCon=     1 RMS=4.41D-05 Max=1.08D-03 NDo=     1
 LinEq1:  Iter=  9 NonCon=     1 RMS=1.69D-05 Max=4.16D-04 NDo=     1
 LinEq1:  Iter= 10 NonCon=     1 RMS=1.16D-05 Max=3.09D-04 NDo=     1
 LinEq1:  Iter= 11 NonCon=     1 RMS=6.61D-06 Max=1.31D-04 NDo=     1
 LinEq1:  Iter= 12 NonCon=     1 RMS=4.24D-06 Max=1.11D-04 NDo=     1
 LinEq1:  Iter= 13 NonCon=     1 RMS=2.96D-06 Max=7.96D-05 NDo=     1
 LinEq1:  Iter= 14 NonCon=     1 RMS=1.75D-06 Max=3.19D-05 NDo=     1
 LinEq1:  Iter= 15 NonCon=     1 RMS=7.28D-07 Max=1.22D-05 NDo=     1
 LinEq1:  Iter= 16 NonCon=     1 RMS=3.82D-07 Max=8.97D-06 NDo=     1
 LinEq1:  Iter= 17 NonCon=     1 RMS=2.78D-07 Max=1.04D-05 NDo=     1
 LinEq1:  Iter= 18 NonCon=     1 RMS=1.56D-07 Max=3.74D-06 NDo=     1
 LinEq1:  Iter= 19 NonCon=     1 RMS=4.83D-08 Max=9.96D-07 NDo=     1
 LinEq1:  Iter= 20 NonCon=     1 RMS=1.62D-08 Max=2.32D-07 NDo=     1
 LinEq1:  Iter= 21 NonCon=     1 RMS=7.07D-09 Max=1.36D-07 NDo=     1
 LinEq1:  Iter= 22 NonCon=     1 RMS=1.61D-09 Max=2.61D-08 NDo=     1
 LinEq1:  Iter= 23 NonCon=     1 RMS=4.61D-10 Max=5.29D-09 NDo=     1
 LinEq1:  Iter= 24 NonCon=     1 RMS=2.18D-10 Max=3.14D-09 NDo=     1
 LinEq1:  Iter= 25 NonCon=     0 RMS=6.43D-11 Max=9.36D-10 NDo=     1
 Linear equations converged to 1.000D-10 1.000D-09 after    25 iterations.
 End of Minotr F.D. properties file   721 does not exist.
 End of Minotr F.D. properties file   722 does not exist.
 End of Minotr F.D. properties file   788 does not exist.
 Leave Link 1002 at Fri Aug  3 00:48:48 2018, MaxMem=  1073741824 cpu:            2944.7 elap:             208.0
 (Enter /shared/apps/gaussian/gaussian-16/g16/l601.exe)
 Copying SCF densities to generalized density rwf, IOpCl= 0 IROHF=0.

 **********************************************************************

            Population analysis using the SCF density.

 **********************************************************************

 Orbital symmetries:
       Occupied  (A) (A) (A) (A) (A) (A) (A) (A) (A) (A) (A) (A)
                 (A) (A) (A) (A) (A) (A) (A) (A) (A) (A) (A) (A)
                 (A) (A) (A) (A) (A) (A) (A) (A) (A) (A) (A) (A)
                 (A) (A) (A) (A) (A) (A) (A) (A) (A) (A) (A) (A)
       Virtual   (A) (A) (A) (A) (A) (A) (A) (A) (A) (A) (A) (A)
                 (A) (A) (A) (A) (A) (A) (A) (A) (A) (A) (A) (A)
                 (A) (A) (A) (A) (A) (A) (A) (A) (A) (A) (A) (A)
                 (A) (A) (A) (A) (A) (A) (A) (A) (A) (A) (A) (A)
                 (A) (A) (A) (A) (A) (A) (A) (A) (A) (A) (A) (A)
                 (A) (A) (A) (A) (A) (A) (A) (A) (A) (A) (A) (A)
                 (A) (A) (A) (A) (A) (A) (A) (A) (A) (A) (A) (A)
                 (A) (A) (A) (A) (A) (A) (A) (A) (A) (A) (A) (A)
                 (A) (A) (A) (A) (A) (A) (A) (A) (A) (A) (A) (A)
                 (A) (A) (A) (A) (A) (A) (A) (A) (A) (A) (A) (A)
                 (A) (A) (A) (A) (A) (A) (A) (A) (A) (A) (A) (A)
                 (A) (A) (A) (A) (A) (A) (A) (A) (A) (A) (A) (A)
                 (A) (A) (A) (A) (A) (A) (A) (A) (A) (A) (A) (A)
                 (A) (A) (A) (A) (A) (A) (A) (A) (A) (A) (A) (A)
                 (A) (A) (A) (A) (A) (A) (A) (A) (A) (A) (A) (A)
                 (A) (A) (A) (A) (A) (A) (A) (A) (A) (A) (A) (A)
                 (A) (A) (A) (A) (A) (A) (A) (A) (A) (A) (A) (A)
                 (A) (A) (A) (A) (A) (A) (A) (A) (A) (A) (A) (A)
                 (A) (A) (A) (A) (A) (A) (A) (A)
 The electronic state is 1-A.
 Alpha  occ. eigenvalues --  -89.29715 -19.26384 -19.26382 -14.52662 -14.52597
 Alpha  occ. eigenvalues --  -10.36344 -10.32062 -10.31961 -10.31349 -10.30600
 Alpha  occ. eigenvalues --  -10.27900 -10.27115  -8.26836  -6.18589  -6.18497
 Alpha  occ. eigenvalues --   -6.18435  -1.18236  -1.16104  -1.05921  -0.91317
 Alpha  occ. eigenvalues --   -0.83198  -0.78826  -0.74092  -0.72384  -0.66220
 Alpha  occ. eigenvalues --   -0.65479  -0.61090  -0.58499  -0.56197  -0.51487
 Alpha  occ. eigenvalues --   -0.50375  -0.50066  -0.48406  -0.46983  -0.45025
 Alpha  occ. eigenvalues --   -0.44731  -0.44261  -0.43298  -0.41799  -0.40986
 Alpha  occ. eigenvalues --   -0.39443  -0.39116  -0.37159  -0.36901  -0.34417
 Alpha  occ. eigenvalues --   -0.32548  -0.31846  -0.25747
 Alpha virt. eigenvalues --   -0.09115  -0.07872  -0.02163  -0.01506  -0.01123
 Alpha virt. eigenvalues --   -0.00212   0.00315   0.00570   0.00879   0.01415
 Alpha virt. eigenvalues --    0.02004   0.02467   0.03327   0.04042   0.04402
 Alpha virt. eigenvalues --    0.05040   0.05493   0.05745   0.06622   0.06978
 Alpha virt. eigenvalues --    0.07426   0.08310   0.09590   0.09900   0.10687
 Alpha virt. eigenvalues --    0.11034   0.11367   0.12322   0.12474   0.12942
 Alpha virt. eigenvalues --    0.13088   0.14540   0.15101   0.15415   0.16427
 Alpha virt. eigenvalues --    0.16646   0.17141   0.17547   0.18056   0.18648
 Alpha virt. eigenvalues --    0.19115   0.19626   0.19695   0.20296   0.20973
 Alpha virt. eigenvalues --    0.21381   0.21960   0.22166   0.22931   0.23139
 Alpha virt. eigenvalues --    0.24498   0.25362   0.25588   0.26253   0.26688
 Alpha virt. eigenvalues --    0.27492   0.28700   0.29059   0.29602   0.29874
 Alpha virt. eigenvalues --    0.31374   0.32123   0.33690   0.35155   0.35273
 Alpha virt. eigenvalues --    0.35544   0.37034   0.39179   0.39925   0.41465
 Alpha virt. eigenvalues --    0.41880   0.48991   0.52071   0.54940   0.59535
 Alpha virt. eigenvalues --    0.59685   0.60176   0.63659   0.64895   0.65443
 Alpha virt. eigenvalues --    0.66531   0.67012   0.69113   0.69750   0.72141
 Alpha virt. eigenvalues --    0.73701   0.74507   0.74595   0.77090   0.77857
 Alpha virt. eigenvalues --    0.79845   0.81585   0.82615   0.84755   0.84918
 Alpha virt. eigenvalues --    0.87000   0.89913   0.90614   0.92432   0.93296
 Alpha virt. eigenvalues --    0.93972   0.94498   0.95612   0.97455   0.97662
 Alpha virt. eigenvalues --    0.98492   1.01642   1.02028   1.04581   1.06538
 Alpha virt. eigenvalues --    1.08444   1.09056   1.10286   1.10644   1.12981
 Alpha virt. eigenvalues --    1.14870   1.18619   1.19764   1.22172   1.24875
 Alpha virt. eigenvalues --    1.26712   1.27423   1.27484   1.27914   1.31105
 Alpha virt. eigenvalues --    1.34663   1.36296   1.36343   1.37787   1.42342
 Alpha virt. eigenvalues --    1.44221   1.44740   1.47218   1.50044   1.53390
 Alpha virt. eigenvalues --    1.53667   1.56411   1.57271   1.65246   1.68340
 Alpha virt. eigenvalues --    1.69326   1.74034   1.75210   1.76465   1.77340
 Alpha virt. eigenvalues --    1.79749   1.80891   1.81178   1.82312   1.83126
 Alpha virt. eigenvalues --    1.85736   1.86903   1.89555   1.92329   1.94569
 Alpha virt. eigenvalues --    1.95259   1.98268   2.00534   2.00771   2.02011
 Alpha virt. eigenvalues --    2.02976   2.04810   2.06310   2.07253   2.09346
 Alpha virt. eigenvalues --    2.10402   2.11892   2.15939   2.16600   2.17335
 Alpha virt. eigenvalues --    2.20652   2.21180   2.27610   2.29388   2.32300
 Alpha virt. eigenvalues --    2.34127   2.34771   2.37330   2.42195   2.42338
 Alpha virt. eigenvalues --    2.45373   2.48001   2.48903   2.51977   2.53887
 Alpha virt. eigenvalues --    2.54700   2.58421   2.61337   2.63927   2.68942
 Alpha virt. eigenvalues --    2.72105   2.72641   2.76008   2.78150   2.81279
 Alpha virt. eigenvalues --    2.85460   2.87000   2.90005   2.90136   2.91467
 Alpha virt. eigenvalues --    2.97233   2.97548   3.04648   3.15967   3.23831
 Alpha virt. eigenvalues --    3.26176   3.28325   3.37898   3.40718   3.40839
 Alpha virt. eigenvalues --    3.43468   3.55784   3.93153   3.95711   4.12494
 Alpha virt. eigenvalues --    4.16349   4.23062   4.27567   4.31795   4.39956
 Alpha virt. eigenvalues --    4.43600   4.54396   4.60256   4.67455
          Condensed to atoms (all electrons):
               1          2          3          4          5          6
     1  C    7.972243  -1.311316  -1.512923   0.537639   0.143367  -0.971966
     2  C   -1.311316   8.861477  -1.472765   1.521222   1.105219  -1.820010
     3  C   -1.512923  -1.472765  10.866333  -3.946403  -0.815175   3.041012
     4  C    0.537639   1.521222  -3.946403  14.810794  -8.934549   1.355870
     5  C    0.143367   1.105219  -0.815175  -8.934549  34.578818 -16.667890
     6  C   -0.971966  -1.820010   3.041012   1.355870 -16.667890  20.493519
     7  C   -0.025961  -0.105653  -0.044650   0.875623  -3.493065   1.080507
     8  N   -0.005798  -0.042483   0.093880   0.052954  -0.260502   0.477016
     9  N   -0.005811  -0.042478   0.093872   0.053160  -0.260675   0.476669
    10  S    0.284291  -0.180207  -0.155679  -1.178706   1.242207  -0.915050
    11  O   -0.081981  -0.079439  -0.000586   0.116107   0.015160  -0.157066
    12  O   -0.082536  -0.079707  -0.000907   0.116587   0.014328  -0.157383
    13  H    0.421927  -0.062557  -0.030445   0.005459  -0.006156  -0.002381
    14  H    0.422670  -0.063222  -0.030381   0.005423  -0.006179  -0.002369
    15  H    0.525076  -0.198501   0.023778   0.005914  -0.008690  -0.000384
    16  H   -0.017261   0.117906   0.147966   0.073173  -0.026768   0.002930
    17  H    0.002142  -0.032747   0.048903   0.044036   0.280925  -0.069099
    18  H    0.000095   0.003335   0.000791  -0.012868   0.069894  -0.059341
    19  H    0.000229   0.001075  -0.000638  -0.003053   0.042929  -0.132226
    20  H    0.000097   0.003357   0.000786  -0.012864   0.070135  -0.059333
               7          8          9         10         11         12
     1  C   -0.025961  -0.005798  -0.005811   0.284291  -0.081981  -0.082536
     2  C   -0.105653  -0.042483  -0.042478  -0.180207  -0.079439  -0.079707
     3  C   -0.044650   0.093880   0.093872  -0.155679  -0.000586  -0.000907
     4  C    0.875623   0.052954   0.053160  -1.178706   0.116107   0.116587
     5  C   -3.493065  -0.260502  -0.260675   1.242207   0.015160   0.014328
     6  C    1.080507   0.477016   0.476669  -0.915050  -0.157066  -0.157383
     7  C    7.359888  -0.200886  -0.200663  -0.210248  -0.005697  -0.005653
     8  N   -0.200886   6.443406   0.408479   0.001104  -0.001996   0.001609
     9  N   -0.200663   0.408479   6.443507   0.001063   0.001595  -0.002011
    10  S   -0.210248   0.001104   0.001063  15.622047   0.269328   0.270276
    11  O   -0.005697  -0.001996   0.001595   0.269328   8.726974  -0.240481
    12  O   -0.005653   0.001609  -0.002011   0.270276  -0.240481   8.727704
    13  H    0.000288  -0.000009   0.000013   0.018702  -0.002609   0.007507
    14  H    0.000285   0.000013  -0.000009   0.018517   0.007478  -0.002601
    15  H   -0.000070  -0.000004  -0.000004   0.010879  -0.000250  -0.000248
    16  H    0.000136   0.000037   0.000037   0.020305  -0.000636  -0.000637
    17  H    0.007883   0.001270   0.001272   0.029761  -0.000427  -0.000428
    18  H    0.336597  -0.010630   0.012040   0.014730  -0.002972  -0.001203
    19  H    0.454515   0.000182   0.000144  -0.001202   0.000233   0.000233
    20  H    0.336419   0.012007  -0.010600   0.014723  -0.001197  -0.002964
              13         14         15         16         17         18
     1  C    0.421927   0.422670   0.525076  -0.017261   0.002142   0.000095
     2  C   -0.062557  -0.063222  -0.198501   0.117906  -0.032747   0.003335
     3  C   -0.030445  -0.030381   0.023778   0.147966   0.048903   0.000791
     4  C    0.005459   0.005423   0.005914   0.073173   0.044036  -0.012868
     5  C   -0.006156  -0.006179  -0.008690  -0.026768   0.280925   0.069894
     6  C   -0.002381  -0.002369  -0.000384   0.002930  -0.069099  -0.059341
     7  C    0.000288   0.000285  -0.000070   0.000136   0.007883   0.336597
     8  N   -0.000009   0.000013  -0.000004   0.000037   0.001270  -0.010630
     9  N    0.000013  -0.000009  -0.000004   0.000037   0.001272   0.012040
    10  S    0.018702   0.018517   0.010879   0.020305   0.029761   0.014730
    11  O   -0.002609   0.007478  -0.000250  -0.000636  -0.000427  -0.002972
    12  O    0.007507  -0.002601  -0.000248  -0.000637  -0.000428  -0.001203
    13  H    0.494658  -0.026286  -0.020252   0.000052   0.000002  -0.000000
    14  H   -0.026286   0.494738  -0.020244   0.000052   0.000002   0.000000
    15  H   -0.020252  -0.020244   0.480281   0.001012   0.000000   0.000000
    16  H    0.000052   0.000052   0.001012   0.479210  -0.002930   0.000000
    17  H    0.000002   0.000002   0.000000  -0.002930   0.484172  -0.000002
    18  H   -0.000000   0.000000   0.000000   0.000000  -0.000002   0.495080
    19  H    0.000000   0.000000  -0.000000  -0.000000   0.000001  -0.019963
    20  H    0.000000  -0.000000   0.000000   0.000000  -0.000002  -0.025735
              19         20
     1  C    0.000229   0.000097
     2  C    0.001075   0.003357
     3  C   -0.000638   0.000786
     4  C   -0.003053  -0.012864
     5  C    0.042929   0.070135
     6  C   -0.132226  -0.059333
     7  C    0.454515   0.336419
     8  N    0.000182   0.012007
     9  N    0.000144  -0.010600
    10  S   -0.001202   0.014723
    11  O    0.000233  -0.001197
    12  O    0.000233  -0.002964
    13  H    0.000000   0.000000
    14  H    0.000000  -0.000000
    15  H   -0.000000   0.000000
    16  H   -0.000000   0.000000
    17  H    0.000001  -0.000002
    18  H   -0.019963  -0.025735
    19  H    0.490410  -0.019972
    20  H   -0.019972   0.494909
 Mulliken charges:
               1
     1  C   -0.294222
     2  C   -0.122506
     3  C   -0.306769
     4  C    0.514482
     5  C   -1.083331
     6  C    0.086975
     7  C   -0.159596
     8  N    0.030350
     9  N    0.030400
    10  S    0.823159
    11  O   -0.561541
    12  O   -0.561483
    13  H    0.202088
    14  H    0.202113
    15  H    0.201708
    16  H    0.205416
    17  H    0.205268
    18  H    0.200151
    19  H    0.187103
    20  H    0.200235
 Sum of Mulliken charges =  -0.00000
[...]
    17  H    4.507930   4.507909   5.363903   5.363410   4.982395
    18  H    2.804087   3.511400   6.058345   5.795493   6.762439
    19  H    4.412229   4.411989   7.219756   7.220396   7.914821
    20  H    3.510855   2.803575   5.794436   6.058691   6.761805
                   16         17         18         19         20
    16  H    0.000000
    17  H    2.598349   0.000000
    18  H    6.082389   4.767259   0.000000
    19  H    6.793974   4.926386   1.779863   0.000000
    20  H    6.082117   4.767212   1.771139   1.779873   0.000000
 Stoichiometry    C7H8N2O2S
 Framework group  C1[X(C7H8N2O2S)]
 Deg. of freedom    54
 Full point group                 C1      NOp   1
 RotChk:  IX=0 Diff= 3.63D-16
 Largest Abelian subgroup         C1      NOp   1
 Largest concise Abelian subgroup C1      NOp   1
                         Standard orientation:                         
 ---------------------------------------------------------------------
 Center     Atomic      Atomic             Coordinates (Angstroms)
 Number     Number       Type             X           Y           Z
 ---------------------------------------------------------------------
      1          6           0       -3.413833    0.339892    0.000052
      2          6           0       -1.978473    0.660191   -0.000093
      3          6           0       -1.301177    1.829178   -0.000229
      4          6           0        0.136233    1.710002   -0.000206
      5          6           0        0.626398    0.432692   -0.000046
      6          6           0        1.965897   -0.035476   -0.000019
      7          6           0        2.276422   -1.489963    0.000148
      8          7           0        2.989050    0.895773    0.640849
      9          7           0        2.989014    0.895660   -0.641135
     10         16           0       -0.787422   -0.684231    0.000083
     11          8           0       -0.863983   -1.423186    1.261095
     12          8           0       -0.863939   -1.423487   -1.260756
     13          1           0       -3.674726   -0.260667   -0.881302
     14          1           0       -3.674854   -0.258947    0.882550
     15          1           0       -4.011834    1.253846   -0.000851
     16          1           0       -1.796931    2.794685   -0.000362
     17          1           0        0.792136    2.575257   -0.000316
     18          1           0        1.857266   -1.986189    0.885948
     19          1           0        3.359103   -1.629498   -0.000150
     20          1           0        1.856714   -1.986539   -0.885190
 ---------------------------------------------------------------------
 Rotational constants (GHZ):           1.6590336           0.6771186           0.5493516
 Leave Link  202 at Fri Aug  3 01:52:09 2018, MaxMem=  1073741824 cpu:               0.1 elap:               0.0
 (Enter /shared/apps/gaussian/gaussian-16/g16/l601.exe)
 Copying SCF densities to generalized density rwf, IOpCl= 0 IROHF=0.

 **********************************************************************

            Population analysis using the SCF density.

 **********************************************************************

 Orbital symmetries:
       Occupied  (A) (A) (A) (A) (A) (A) (A) (A) (A) (A) (A) (A)
                 (A) (A) (A) (A) (A) (A) (A) (A) (A) (A) (A) (A)
                 (A) (A) (A) (A) (A) (A) (A) (A) (A) (A) (A) (A)
                 (A) (A) (A) (A) (A) (A) (A) (A) (A) (A) (A) (A)
       Virtual   (A) (A) (A) (A) (A) (A) (A) (A) (A) (A) (A) (A)
                 (A) (A) (A) (A) (A) (A) (A) (A) (A) (A) (A) (A)
                 (A) (A) (A) (A) (A) (A) (A) (A) (A) (A) (A) (A)
                 (A) (A) (A) (A) (A) (A) (A) (A) (A) (A) (A) (A)
                 (A) (A) (A) (A) (A) (A) (A) (A) (A) (A) (A) (A)
                 (A) (A) (A) (A) (A) (A) (A) (A) (A) (A) (A) (A)
                 (A) (A) (A) (A) (A) (A) (A) (A) (A) (A) (A) (A)
                 (A) (A) (A) (A) (A) (A) (A) (A) (A) (A) (A) (A)
                 (A) (A) (A) (A) (A) (A) (A) (A) (A) (A) (A) (A)
                 (A) (A) (A) (A) (A) (A) (A) (A) (A) (A) (A) (A)
                 (A) (A) (A) (A) (A) (A) (A) (A) (A) (A) (A) (A)
                 (A) (A) (A) (A) (A) (A) (A) (A) (A) (A) (A) (A)
                 (A) (A) (A) (A) (A) (A) (A) (A) (A) (A) (A) (A)
                 (A) (A) (A) (A) (A) (A) (A) (A) (A) (A) (A) (A)
                 (A) (A) (A) (A) (A) (A) (A) (A) (A) (A) (A) (A)
                 (A) (A) (A) (A) (A) (A) (A) (A) (A) (A) (A) (A)
                 (A) (A) (A) (A) (A) (A) (A) (A) (A) (A) (A) (A)
                 (A) (A) (A) (A) (A) (A) (A) (A) (A) (A) (A) (A)
                 (A) (A) (A) (A) (A) (A) (A) (A)
 The electronic state is 1-A.
 Alpha  occ. eigenvalues --  -89.29922 -19.26503 -19.26502 -14.53058 -14.53011
 Alpha  occ. eigenvalues --  -10.36555 -10.32226 -10.32182 -10.31547 -10.30609
 Alpha  occ. eigenvalues --  -10.27906 -10.27143  -8.27026  -6.18777  -6.18691
 Alpha  occ. eigenvalues --   -6.18626  -1.16182  -1.13891  -1.05949  -0.91415
 Alpha  occ. eigenvalues --   -0.83549  -0.79014  -0.74417  -0.72458  -0.65935
 Alpha  occ. eigenvalues --   -0.65678  -0.60823  -0.58360  -0.55479  -0.51534
 Alpha  occ. eigenvalues --   -0.50464  -0.49230  -0.48308  -0.46839  -0.45095
 Alpha  occ. eigenvalues --   -0.44730  -0.44507  -0.42796  -0.41805  -0.41026
 Alpha  occ. eigenvalues --   -0.39463  -0.38842  -0.37203  -0.37117  -0.34518
 Alpha  occ. eigenvalues --   -0.32671  -0.32135  -0.25286
 Alpha virt. eigenvalues --   -0.10001  -0.08997  -0.02174  -0.01500  -0.01113
 Alpha virt. eigenvalues --   -0.00229   0.00309   0.00604   0.00856   0.01220
 Alpha virt. eigenvalues --    0.01612   0.02451   0.03317   0.03993   0.04064
 Alpha virt. eigenvalues --    0.05029   0.05389   0.05797   0.06579   0.06942
 Alpha virt. eigenvalues --    0.07208   0.08272   0.09298   0.09922   0.10305
 Alpha virt. eigenvalues --    0.10718   0.11310   0.12279   0.12399   0.12805
 Alpha virt. eigenvalues --    0.12840   0.14409   0.15093   0.15513   0.16432
 Alpha virt. eigenvalues --    0.16446   0.16909   0.17444   0.17930   0.18490
 Alpha virt. eigenvalues --    0.18941   0.19574   0.19691   0.20290   0.20973
 Alpha virt. eigenvalues --    0.21657   0.21790   0.21933   0.23053   0.23245
 Alpha virt. eigenvalues --    0.24021   0.25659   0.26022   0.26212   0.26444
 Alpha virt. eigenvalues --    0.27332   0.28615   0.29219   0.29482   0.29695
 Alpha virt. eigenvalues --    0.31177   0.31947   0.33591   0.34931   0.35163
 Alpha virt. eigenvalues --    0.35450   0.36871   0.37202   0.39048   0.40276
 Alpha virt. eigenvalues --    0.42215   0.48550   0.51697   0.55595   0.59285
 Alpha virt. eigenvalues --    0.59553   0.59873   0.63291   0.65369   0.65688
 Alpha virt. eigenvalues --    0.66588   0.66914   0.69146   0.69591   0.72334
 Alpha virt. eigenvalues --    0.73577   0.74104   0.75104   0.76629   0.77856
 Alpha virt. eigenvalues --    0.79708   0.82065   0.82498   0.85234   0.85619
 Alpha virt. eigenvalues --    0.86974   0.89841   0.90553   0.92460   0.93180
 Alpha virt. eigenvalues --    0.93829   0.94282   0.95529   0.96954   0.97422
 Alpha virt. eigenvalues --    0.98820   1.01651   1.02620   1.04749   1.05939
 Alpha virt. eigenvalues --    1.08241   1.09071   1.09812   1.10598   1.12907
 Alpha virt. eigenvalues --    1.15141   1.18569   1.20219   1.21882   1.24792
 Alpha virt. eigenvalues --    1.26741   1.27173   1.27651   1.27876   1.31036
 Alpha virt. eigenvalues --    1.33431   1.36035   1.36081   1.37891   1.42528
 Alpha virt. eigenvalues --    1.43580   1.44234   1.46551   1.49292   1.52920
 Alpha virt. eigenvalues --    1.53424   1.55980   1.56345   1.65487   1.68604
 Alpha virt. eigenvalues --    1.69574   1.73401   1.75675   1.75871   1.79511
 Alpha virt. eigenvalues --    1.79533   1.81205   1.81761   1.82222   1.82587
 Alpha virt. eigenvalues --    1.83876   1.86802   1.89055   1.91042   1.93396
 Alpha virt. eigenvalues --    1.94454   1.97706   1.99865   2.00669   2.01499
 Alpha virt. eigenvalues --    2.02841   2.04903   2.06615   2.07014   2.09022
 Alpha virt. eigenvalues --    2.10209   2.11513   2.15339   2.15689   2.16862
 Alpha virt. eigenvalues --    2.20470   2.21058   2.26558   2.28692   2.29504
 Alpha virt. eigenvalues --    2.33152   2.34458   2.37259   2.38814   2.41624
 Alpha virt. eigenvalues --    2.43287   2.45332   2.45846   2.51670   2.53213
 Alpha virt. eigenvalues --    2.54009   2.57888   2.61600   2.63849   2.69110
 Alpha virt. eigenvalues --    2.71313   2.72097   2.74204   2.78325   2.79774
 Alpha virt. eigenvalues --    2.85242   2.87275   2.89685   2.89992   2.92265
 Alpha virt. eigenvalues --    2.93961   2.97414   3.06255   3.16727   3.23853
 Alpha virt. eigenvalues --    3.26022   3.28039   3.37870   3.40493   3.40832
 Alpha virt. eigenvalues --    3.43551   3.56346   3.93068   3.95279   4.09288
 Alpha virt. eigenvalues --    4.15997   4.23269   4.27257   4.31828   4.39863
 Alpha virt. eigenvalues --    4.43013   4.54302   4.60095   4.67799
          Condensed to atoms (all electrons):
               1          2          3          4          5          6
     1  C    8.324132  -1.551222  -1.554975   0.530032   0.315741  -1.256876
     2  C   -1.551222   8.997440  -1.325815   1.266552   1.813189  -2.258440
     3  C   -1.554975  -1.325815  11.042016  -4.149409  -1.233768   3.462180
     4  C    0.530032   1.266552  -4.149409  14.778086  -9.197133   2.027599
     5  C    0.315741   1.813189  -1.233768  -9.197133  41.138696 -22.721372
     6  C   -1.256876  -2.258440   3.462180   2.027599 -22.721372  25.980426
     7  C   -0.048216  -0.169596  -0.063599   0.987124  -4.742786   1.825533
     8  N   -0.006044  -0.041823   0.109056   0.024736  -0.148614   0.429854
     9  N   -0.006042  -0.041769   0.108971   0.024999  -0.148777   0.429692
    10  S    0.348108  -0.163177  -0.233371  -1.109488   1.527752  -1.309489
    11  O   -0.078510  -0.075961  -0.007443   0.117013   0.035361  -0.181271
    12  O   -0.078655  -0.075915  -0.007713   0.117089   0.035012  -0.180858
    13  H    0.423266  -0.065119  -0.030117   0.005894  -0.006149  -0.002784
    14  H    0.423589  -0.065402  -0.030031   0.005869  -0.006161  -0.002780
    15  H    0.529331  -0.202750   0.024702   0.005279  -0.009012  -0.000521
    16  H   -0.018179   0.113498   0.141510   0.083130  -0.025399   0.002216
    17  H    0.002853  -0.029890   0.050242   0.037851   0.298691  -0.088631
    18  H    0.000197   0.004011   0.000700  -0.012147   0.084315  -0.069154
    19  H    0.000240   0.001011  -0.000678  -0.004091   0.037932  -0.137157
    20  H    0.000194   0.004000   0.000717  -0.012210   0.084311  -0.069041
               7          8          9         10         11         12
     1  C   -0.048216  -0.006044  -0.006042   0.348108  -0.078510  -0.078655
     2  C   -0.169596  -0.041823  -0.041769  -0.163177  -0.075961  -0.075915
     3  C   -0.063599   0.109056   0.108971  -0.233371  -0.007443  -0.007713
     4  C    0.987124   0.024736   0.024999  -1.109488   0.117013   0.117089
     5  C   -4.742786  -0.148614  -0.148777   1.527752   0.035361   0.035012
     6  C    1.825533   0.429854   0.429692  -1.309489  -0.181271  -0.180858
     7  C    7.984242  -0.259526  -0.259379  -0.254627  -0.003697  -0.003790
     8  N   -0.259526   6.466331   0.402088   0.001171  -0.001711   0.001237
     9  N   -0.259379   0.402088   6.466303   0.001151   0.001237  -0.001714
    10  S   -0.254627   0.001171   0.001151  15.645674   0.275464   0.275792
    11  O   -0.003697  -0.001711   0.001237   0.275464   8.718144  -0.238777
    12  O   -0.003790   0.001237  -0.001714   0.275792  -0.238777   8.718172
    13  H    0.000297  -0.000006   0.000010   0.018748  -0.002567   0.007465
    14  H    0.000295   0.000010  -0.000007   0.018654   0.007452  -0.002561
    15  H   -0.000091  -0.000004  -0.000004   0.011035  -0.000251  -0.000250
    16  H    0.000181   0.000015   0.000015   0.021184  -0.000577  -0.000577
    17  H    0.008502   0.001060   0.001059   0.031410  -0.000376  -0.000376
    18  H    0.328945  -0.009682   0.011268   0.015188  -0.002813  -0.001354
    19  H    0.466097  -0.000187  -0.000197  -0.001114   0.000231   0.000232
    20  H    0.328853   0.011265  -0.009676   0.015226  -0.001357  -0.002808
              13         14         15         16         17         18
     1  C    0.423266   0.423589   0.529331  -0.018179   0.002853   0.000197
     2  C   -0.065119  -0.065402  -0.202750   0.113498  -0.029890   0.004011
     3  C   -0.030117  -0.030031   0.024702   0.141510   0.050242   0.000700
     4  C    0.005894   0.005869   0.005279   0.083130   0.037851  -0.012147
     5  C   -0.006149  -0.006161  -0.009012  -0.025399   0.298691   0.084315
     6  C   -0.002784  -0.002780  -0.000521   0.002216  -0.088631  -0.069154
     7  C    0.000297   0.000295  -0.000091   0.000181   0.008502   0.328945
     8  N   -0.000006   0.000010  -0.000004   0.000015   0.001060  -0.009682
     9  N    0.000010  -0.000007  -0.000004   0.000015   0.001059   0.011268
    10  S    0.018748   0.018654   0.011035   0.021184   0.031410   0.015188
    11  O   -0.002567   0.007452  -0.000251  -0.000577  -0.000376  -0.002813
    12  O    0.007465  -0.002561  -0.000250  -0.000577  -0.000376  -0.001354
    13  H    0.494848  -0.026615  -0.019942   0.000057   0.000002  -0.000000
    14  H   -0.026615   0.494811  -0.019941   0.000057   0.000002   0.000000
    15  H   -0.019942  -0.019941   0.479106   0.000999  -0.000000   0.000000
    16  H    0.000057   0.000057   0.000999   0.478258  -0.003069   0.000000
    17  H    0.000002   0.000002  -0.000000  -0.003069   0.485220  -0.000003
    18  H   -0.000000   0.000000   0.000000   0.000000  -0.000003   0.494701
    19  H    0.000000   0.000000  -0.000000  -0.000000   0.000001  -0.019398
    20  H    0.000000  -0.000000   0.000000   0.000000  -0.000003  -0.026290
              19         20
     1  C    0.000240   0.000194
     2  C    0.001011   0.004000
     3  C   -0.000678   0.000717
     4  C   -0.004091  -0.012210
     5  C    0.037932   0.084311
     6  C   -0.137157  -0.069041
     7  C    0.466097   0.328853
     8  N   -0.000187   0.011265
     9  N   -0.000197  -0.009676
    10  S   -0.001114   0.015226
    11  O    0.000231  -0.001357
    12  O    0.000232  -0.002808
    13  H    0.000000   0.000000
    14  H    0.000000  -0.000000
    15  H   -0.000000   0.000000
    16  H   -0.000000   0.000000
    17  H    0.000001  -0.000003
    18  H   -0.019398  -0.026290
    19  H    0.488967  -0.019395
    20  H   -0.019395   0.494718
 Mulliken charges:
               1
     1  C   -0.298964
     2  C   -0.132825
     3  C   -0.303175
     4  C    0.473225
     5  C   -1.131829
     6  C    0.120873
     7  C   -0.124760
     8  N    0.020773
     9  N    0.020772
    10  S    0.864708
    11  O   -0.559590
    12  O   -0.559650
    13  H    0.202713
    14  H    0.202758
    15  H    0.202314
    16  H    0.206684
    17  H    0.205453
    18  H    0.201515
    19  H    0.187507
    20  H    0.201497
 Sum of Mulliken charges =  -0.00000
 Mulliken charges with hydrogens summed into heavy atoms:
               1
     1  C    0.308821
     2  C   -0.132825
     3  C   -0.096491
     4  C    0.678678
     5  C   -1.131829
     6  C    0.120873
     7  C    0.465759
     8  N    0.020773
     9  N    0.020772
    10  S    0.864708
    11  O   -0.559590
    12  O   -0.559650
 Electronic spatial extent (au):  <R**2>=           2098.7247
 Charge=             -0.0000 electrons
 Dipole moment (field-independent basis, Debye):
    X=             -2.0526    Y=              4.3946    Z=             -0.0003  Tot=              4.8503
 Quadrupole moment (field-independent basis, Debye-Ang):
   XX=            -68.6746   YY=            -74.3190   ZZ=            -86.4798
   XY=            -12.5417   XZ=              0.0008   YZ=             -0.0013
 Traceless Quadrupole moment (field-independent basis, Debye-Ang):
   XX=              7.8165   YY=              2.1721   ZZ=             -9.9887
   XY=            -12.5417   XZ=              0.0008   YZ=             -0.0013
 Octapole moment (field-independent basis, Debye-Ang**2):
  XXX=            -59.6922  YYY=             22.6894  ZZZ=              0.0032  XYY=             -1.4023
  XXY=            -11.8079  XXZ=              0.0024  XZZ=             -2.2163  YZZ=              0.9580
  YYZ=             -0.0043  XYZ=              0.0000
 Hexadecapole moment (field-independent basis, Debye-Ang**3):
 XXXX=          -1761.6690 YYYY=           -646.7723 ZZZZ=           -250.6755 XXXY=            -83.8606
 XXXZ=              0.0123 YYYX=            -35.1199 YYYZ=              0.0139 ZZZX=              0.0108
 ZZZY=              0.0330 XXYY=           -410.9014 XXZZ=           -375.4782 YYZZ=           -176.0364
 XXYZ=              0.0039 YYXZ=              0.0141 ZZXY=            -12.0478
 N-N= 8.325284507960D+02 E-N=-3.845189629614D+03  KE= 9.221153654071D+02
 No NMR shielding tensors so no spin-rotation constants.
 Leave Link  601 at Fri Aug  3 01:52:09 2018, MaxMem=  1073741824 cpu:               2.8 elap:               0.2
 (Enter /shared/apps/gaussian/gaussian-16/g16/l9999.exe)
 Electronic transition elements 
                 1             2             3 
      1  -0.929106D+03 -0.929083D+03 -0.929031D+03
      2  -0.572544D+00  0.165364D+01  0.341769D-02
      3  -0.375075D-01 -0.314890D-01  0.106250D-02
      4   0.413298D-05 -0.620983D-04 -0.171314D-01
      5   0.399418D-01 -0.199565D+00 -0.581357D-03
      6   0.113577D-01  0.480174D-02 -0.102864D-03
      7   0.000000D+00  0.789228D-05  0.373294D-02
      8   0.207751D-04 -0.482840D-04  0.239376D-01
      9   0.103306D-04  0.193036D-03 -0.339488D-01
     10   0.742518D+00  0.120682D+01  0.771677D-02
     11  -0.195095D+00 -0.100782D+00 -0.174087D-03
     12   0.109858D+00  0.219816D-01  0.336946D-03
     13   0.974374D-02 -0.801988D-02 -0.596722D-04
     14   0.101073D+00 -0.122163D+00  0.706576D-03
     15   0.134729D-04 -0.554531D-04  0.210414D-01
     16  -0.127838D-04 -0.412444D-05 -0.310196D-01
 1\1\GINC-COMPUTE-0-156\FOpt\RM06 TD-FC\6-31+G(d,p)\C7H8N2O2S1\ROOT\03-
 Aug-2018\0\\#p M06/6-31+G(d,p) SCRF=(Solvent=Acetonitrile) opt td=root
 =1\\ADNOQZQZUQQVRY-UHFFFAOYSA-N_S1_solv\\0,1\C,-3.4167035491,0.3058096
 351,0.0001488371\C,-1.9839288382,0.637480881,0.0000032193\C,-1.3159231
 417,1.8118020711,-0.0001323874\C,0.1223859749,1.7040276803,-0.00010985
 67\C,0.6226643384,0.4306449633,0.0000500693\C,1.9658333394,-0.02688683
 28,0.0000771879\C,2.2878820838,-1.4788664887,0.0002447965\N,2.98157024
 02,0.9124459073,0.6409454109\N,2.9815352009,0.9123325544,-0.6410387449
 \S,-0.78225399,-0.6974541231,0.0001794159\O,-0.8529535836,-1.436993478
 6,1.2611915425\O,-0.8529067286,-1.4372941546,-1.2606590645\H,-3.672826
 3506,-0.2967986425,-0.8812053488\H,-3.6729681897,-0.2950801377,0.88264
 66091\H,-4.0219331428,1.2149933073,-0.000754824\H,-1.8193178568,2.7733
 470779,-0.0002651574\H,0.7714077602,2.5744559983,-0.0002192928\H,1.872
 6747413,-1.9784006742,0.886044877\H,3.3716359558,-1.6098112731,-0.0000
 534358\H,1.8721257361,-1.9787542708,-0.8850938531\\Version=EM64L-G16Re
 vA.03\State=1-A\HF=-929.2005598\RMSD=6.181e-09\RMSF=4.225e-05\Dipole=-
 2.8789676,1.6219832,-0.0000303\PG=C01 [X(C7H8N2O2S1)]\\@


 DESK:  A WASTEBASKET WITH DRAWERS.
 Job cpu time:       0 days 19 hours 21 minutes 44.3 seconds.
 Elapsed time:       0 days  1 hours 15 minutes 24.9 seconds.
 File lengths (MBytes):  RWF=   1376 Int=      0 D2E=      0 Chk=     48 Scr=     32
 Normal termination of Gaussian 16 at Fri Aug  3 01:52:09 2018.
