 Entering Gaussian System, Link 0=g16
 Input=ADNOQZQZUQQVRY-UHFFFAOYSA-N_S0_vac.com
 Output=ADNOQZQZUQQVRY-UHFFFAOYSA-N_S0_vac.log
 Initial command:
 /shared/apps/gaussian/gaussian-16/g16/l1.exe "/gss_gpfs_scratch/abreha.b/diazirines1_231_4_2018-08-02/s0_dft-opt_vac/Gau-15429.inp" -scrdir="/gss_gpfs_scratch/abreha.b/diazirines1_231_4_2018-08-02/s0_dft-opt_vac/"
 Entering Link 1 = /shared/apps/gaussian/gaussian-16/g16/l1.exe PID=     15430.
  
 Copyright (c) 1988,1990,1992,1993,1995,1998,2003,2009,2016,
            Gaussian, Inc.  All Rights Reserved.
  
 This is part of the Gaussian(R) 16 program.  It is based on
 the Gaussian(R) 09 system (copyright 2009, Gaussian, Inc.),
 the Gaussian(R) 03 system (copyright 2003, Gaussian, Inc.),
 the Gaussian(R) 98 system (copyright 1998, Gaussian, Inc.),
 the Gaussian(R) 94 system (copyright 1995, Gaussian, Inc.),
 the Gaussian 92(TM) system (copyright 1992, Gaussian, Inc.),
 the Gaussian 90(TM) system (copyright 1990, Gaussian, Inc.),
 the Gaussian 88(TM) system (copyright 1988, Gaussian, Inc.),
 the Gaussian 86(TM) system (copyright 1986, Carnegie Mellon
 University), and the Gaussian 82(TM) system (copyright 1983,
 Carnegie Mellon University). Gaussian is a federally registered
 trademark of Gaussian, Inc.
  
 This software contains proprietary and confidential information,
 including trade secrets, belonging to Gaussian, Inc.
  
 This software is provided under written license and may be
 used, copied, transmitted, or stored only in accord with that
 written license.
  
 The following legend is applicable only to US Government
 contracts under FAR:
  
                    RESTRICTED RIGHTS LEGEND
  
 Use, reproduction and disclosure by the US Government is
 subject to restrictions as set forth in subparagraphs (a)
 and (c) of the Commercial Computer Software - Restricted
 Rights clause in FAR 52.227-19.
  
 Gaussian, Inc.
 340 Quinnipiac St., Bldg. 40, Wallingford CT 06492
  
  
 ---------------------------------------------------------------
 Warning -- This program may not be used in any manner that
 competes with the business of Gaussian, Inc. or will provide
 assistance to any competitor of Gaussian, Inc.  The licensee
 of this program is prohibited from giving any competitor of
 Gaussian, Inc. access to this program.  By using this program,
 the user acknowledges that Gaussian, Inc. is engaged in the
 business of creating and licensing software in the field of
 computational chemistry and represents and warrants to the
 licensee that it is not a competitor of Gaussian, Inc. and that
 it will not use this program in any manner prohibited above.
 ---------------------------------------------------------------
  

 Cite this work as:
 Gaussian 16, Revision A.03,
 M. J. Frisch, G. W. Trucks, H. B. Schlegel, G. E. Scuseria, 
 M. A. Robb, J. R. Cheeseman, G. Scalmani, V. Barone, 
 G. A. Petersson, H. Nakatsuji, X. Li, M. Caricato, A. V. Marenich, 
 J. Bloino, B. G. Janesko, R. Gomperts, B. Mennucci, H. P. Hratchian, 
 J. V. Ortiz, A. F. Izmaylov, J. L. Sonnenberg, D. Williams-Young, 
 F. Ding, F. Lipparini, F. Egidi, J. Goings, B. Peng, A. Petrone, 
 T. Henderson, D. Ranasinghe, V. G. Zakrzewski, J. Gao, N. Rega, 
 G. Zheng, W. Liang, M. Hada, M. Ehara, K. Toyota, R. Fukuda, 
 J. Hasegawa, M. Ishida, T. Nakajima, Y. Honda, O. Kitao, H. Nakai, 
 T. Vreven, K. Throssell, J. A. Montgomery, Jr., J. E. Peralta, 
 F. Ogliaro, M. J. Bearpark, J. J. Heyd, E. N. Brothers, K. N. Kudin, 
 V. N. Staroverov, T. A. Keith, R. Kobayashi, J. Normand, 
 K. Raghavachari, A. P. Rendell, J. C. Burant, S. S. Iyengar, 
 J. Tomasi, M. Cossi, J. M. Millam, M. Klene, C. Adamo, R. Cammi, 
 J. W. Ochterski, R. L. Martin, K. Morokuma, O. Farkas, 
 J. B. Foresman, and D. J. Fox, Gaussian, Inc., Wallingford CT, 2016.
 
 ******************************************
 Gaussian 16:  EM64L-G16RevA.03 25-Dec-2016
                 2-Aug-2018 
 ******************************************
 %rwf=ADNOQZQZUQQVRY-UHFFFAOYSA-N_S0_vac.rwf
 %NoSave
 %chk=ADNOQZQZUQQVRY-UHFFFAOYSA-N_S0_vac.chk
 %mem=8GB
 %nproc=16
 Will use up to   16 processors via shared memory.
 ----------------------
 #p M06/6-31+G(d,p) opt
 ----------------------
 1/18=20,19=15,26=3,38=1/1,3;
 2/9=110,12=2,17=6,18=5,40=1/2;
 3/5=1,6=6,7=111,11=2,25=1,30=1,71=1,74=-54/1,2,3;
 4//1;
 5/5=2,38=5/2;
 6/7=2,8=2,9=2,10=2,28=1/1;
 7//1,2,3,16;
 1/18=20,19=15,26=3/3(2);
 2/9=110/2;
 99//99;
 2/9=110/2;
 3/5=1,6=6,7=111,11=2,25=1,30=1,71=1,74=-54/1,2,3;
 4/5=5,16=3,69=1/1;
 5/5=2,38=5/2;
 7//1,2,3,16;
 1/18=20,19=15,26=3/3(-5);
 2/9=110/2;
 6/7=2,8=2,9=2,10=2,19=2,28=1/1;
 99/9=1/99;
 Leave Link    1 at Thu Aug  2 15:38:48 2018, MaxMem=  1073741824 cpu:              93.1 elap:               6.2
 (Enter /shared/apps/gaussian/gaussian-16/g16/l101.exe)
 ----------------------------------
 ADNOQZQZUQQVRY-UHFFFAOYSA-N_S0_vac
 ----------------------------------
 Symbolic Z-matrix:
 Charge =  0 Multiplicity = 1
 C                    -3.338     0.285     0.005 
 C                    -1.89      0.557    -0.07 
 C                    -1.367     1.768    -0.313 
 C                     0.111     1.693    -0.333 
 C                     0.519     0.433    -0.099 
 C                     1.916     0.028    -0.086 
 C                     2.249    -1.291    -0.717 
 N                     2.793     0.553     1.051 
 N                     2.977     1.127    -0.048 
 S                    -0.748    -0.676     0.153 
 O                    -0.771    -1.149     1.483 
 O                    -0.797    -1.613    -0.904 
 H                    -3.64     -0.455    -0.755 
 H                    -3.615    -0.117     0.993 
 H                    -3.954     1.18     -0.16 
 H                    -1.904     2.699    -0.482 
 H                     0.732     2.568    -0.523 
 H                     1.986    -2.129    -0.052 
 H                     3.319    -1.399    -0.953 
 H                     1.705    -1.434    -1.665 
 
 ITRead=  0  0  0  0  0  0  0  0  0  0  0  0  0  0  0  0  0  0  0  0
 MicOpt= -1 -1 -1 -1 -1 -1 -1 -1 -1 -1 -1 -1 -1 -1 -1 -1 -1 -1 -1 -1
 NAtoms=     20 NQM=       20 NQMF=       0 NMMI=      0 NMMIF=      0
                NMic=       0 NMicF=      0.
                    Isotopes and Nuclear Properties:
 (Nuclear quadrupole moments (NQMom) in fm**2, nuclear magnetic moments (NMagM)
  in nuclear magnetons)

  Atom         1           2           3           4           5           6           7           8           9          10
 IAtWgt=          12          12          12          12          12          12          12          14          14          32
 AtmWgt=  12.0000000  12.0000000  12.0000000  12.0000000  12.0000000  12.0000000  12.0000000  14.0030740  14.0030740  31.9720718
 NucSpn=           0           0           0           0           0           0           0           2           2           0
 AtZEff=  -0.0000000  -0.0000000  -0.0000000  -0.0000000  -0.0000000  -0.0000000  -0.0000000  -0.0000000  -0.0000000  -0.0000000
 NQMom=    0.0000000   0.0000000   0.0000000   0.0000000   0.0000000   0.0000000   0.0000000   2.0440000   2.0440000   0.0000000
 NMagM=    0.0000000   0.0000000   0.0000000   0.0000000   0.0000000   0.0000000   0.0000000   0.4037610   0.4037610   0.0000000
 AtZNuc=   6.0000000   6.0000000   6.0000000   6.0000000   6.0000000   6.0000000   6.0000000   7.0000000   7.0000000  16.0000000

  Atom        11          12          13          14          15          16          17          18          19          20
 IAtWgt=          16          16           1           1           1           1           1           1           1           1
 AtmWgt=  15.9949146  15.9949146   1.0078250   1.0078250   1.0078250   1.0078250   1.0078250   1.0078250   1.0078250   1.0078250
 NucSpn=           0           0           1           1           1           1           1           1           1           1
 AtZEff=  -0.0000000  -0.0000000  -0.0000000  -0.0000000  -0.0000000  -0.0000000  -0.0000000  -0.0000000  -0.0000000  -0.0000000
 NQMom=    0.0000000   0.0000000   0.0000000   0.0000000   0.0000000   0.0000000   0.0000000   0.0000000   0.0000000   0.0000000
 NMagM=    0.0000000   0.0000000   2.7928460   2.7928460   2.7928460   2.7928460   2.7928460   2.7928460   2.7928460   2.7928460
 AtZNuc=   8.0000000   8.0000000   1.0000000   1.0000000   1.0000000   1.0000000   1.0000000   1.0000000   1.0000000   1.0000000
 Leave Link  101 at Thu Aug  2 15:38:48 2018, MaxMem=  1073741824 cpu:               5.0 elap:               0.5
 (Enter /shared/apps/gaussian/gaussian-16/g16/l103.exe)

 GradGradGradGradGradGradGradGradGradGradGradGradGradGradGradGradGradGrad
 Berny optimization.
 Initialization pass.
                           ----------------------------
                           !    Initial Parameters    !
                           ! (Angstroms and Degrees)  !
 --------------------------                            --------------------------
 ! Name  Definition              Value          Derivative Info.                !
 --------------------------------------------------------------------------------
 ! R1    R(1,2)                  1.4752         estimate D2E/DX2                !
 ! R2    R(1,13)                 1.1029         estimate D2E/DX2                !
 ! R3    R(1,14)                 1.102          estimate D2E/DX2                !
 ! R4    R(1,15)                 1.099          estimate D2E/DX2                !
 ! R5    R(2,3)                  1.3413         estimate D2E/DX2                !
 ! R6    R(2,10)                 1.6953         estimate D2E/DX2                !
 ! R7    R(3,4)                  1.48           estimate D2E/DX2                !
 ! R8    R(3,16)                 1.088          estimate D2E/DX2                !
 ! R9    R(4,5)                  1.3449         estimate D2E/DX2                !
 ! R10   R(4,17)                 1.0897         estimate D2E/DX2                !
 ! R11   R(5,6)                  1.4546         estimate D2E/DX2                !
 ! R12   R(5,10)                 1.7025         estimate D2E/DX2                !
 ! R13   R(6,7)                  1.4996         estimate D2E/DX2                !
 ! R14   R(6,8)                  1.5289         estimate D2E/DX2                !
 ! R15   R(6,9)                  1.5281         estimate D2E/DX2                !
 ! R16   R(7,18)                 1.1017         estimate D2E/DX2                !
 ! R17   R(7,19)                 1.101          estimate D2E/DX2                !
 ! R18   R(7,20)                 1.1023         estimate D2E/DX2                !
 ! R19   R(8,9)                  1.2534         estimate D2E/DX2                !
 ! R20   R(10,11)                1.4118         estimate D2E/DX2                !
 ! R21   R(10,12)                1.4134         estimate D2E/DX2                !
 ! A1    A(2,1,13)             110.9432         estimate D2E/DX2                !
 ! A2    A(2,1,14)             111.0725         estimate D2E/DX2                !
 ! A3    A(2,1,15)             113.1034         estimate D2E/DX2                !
 ! A4    A(13,1,14)            107.7105         estimate D2E/DX2                !
 ! A5    A(13,1,15)            106.8271         estimate D2E/DX2                !
 ! A6    A(14,1,15)            106.9056         estimate D2E/DX2                !
 ! A7    A(1,2,3)              123.945          estimate D2E/DX2                !
 ! A8    A(1,2,10)             121.3586         estimate D2E/DX2                !
 ! A9    A(3,2,10)             114.6964         estimate D2E/DX2                !
 ! A10   A(2,3,4)              110.2477         estimate D2E/DX2                !
 ! A11   A(2,3,16)             127.4647         estimate D2E/DX2                !
 ! A12   A(4,3,16)             122.2871         estimate D2E/DX2                !
 ! A13   A(3,4,5)              110.3692         estimate D2E/DX2                !
 ! A14   A(3,4,17)             122.0583         estimate D2E/DX2                !
 ! A15   A(5,4,17)             127.5712         estimate D2E/DX2                !
 ! A16   A(4,5,6)              123.6253         estimate D2E/DX2                !
 ! A17   A(4,5,10)             114.22           estimate D2E/DX2                !
 ! A18   A(6,5,10)             122.143          estimate D2E/DX2                !
 ! A19   A(5,6,7)              117.0267         estimate D2E/DX2                !
 ! A20   A(5,6,8)              117.5128         estimate D2E/DX2                !
 ! A21   A(5,6,9)              117.8287         estimate D2E/DX2                !
 ! A22   A(7,6,8)              119.1813         estimate D2E/DX2                !
 ! A23   A(7,6,9)              119.2666         estimate D2E/DX2                !
 ! A24   A(6,7,18)             111.2264         estimate D2E/DX2                !
 ! A25   A(6,7,19)             113.0958         estimate D2E/DX2                !
 ! A26   A(6,7,20)             111.4931         estimate D2E/DX2                !
 ! A27   A(18,7,19)            106.6651         estimate D2E/DX2                !
 ! A28   A(18,7,20)            107.6162         estimate D2E/DX2                !
 ! A29   A(19,7,20)            106.4117         estimate D2E/DX2                !
 ! A30   A(2,10,5)              90.4629         estimate D2E/DX2                !
 ! A31   A(2,10,11)            110.8921         estimate D2E/DX2                !
 ! A32   A(2,10,12)            111.1268         estimate D2E/DX2                !
 ! A33   A(5,10,11)            111.703          estimate D2E/DX2                !
 ! A34   A(5,10,12)            110.3002         estimate D2E/DX2                !
 ! A35   A(11,10,12)           118.8065         estimate D2E/DX2                !
 ! D1    D(13,1,2,3)           120.0616         estimate D2E/DX2                !
 ! D2    D(13,1,2,10)          -59.9883         estimate D2E/DX2                !
 ! D3    D(14,1,2,3)          -120.1669         estimate D2E/DX2                !
 ! D4    D(14,1,2,10)           59.7832         estimate D2E/DX2                !
 ! D5    D(15,1,2,3)             0.0442         estimate D2E/DX2                !
 ! D6    D(15,1,2,10)          179.9943         estimate D2E/DX2                !
 ! D7    D(1,2,3,4)           -179.5193         estimate D2E/DX2                !
 ! D8    D(1,2,3,16)             0.2216         estimate D2E/DX2                !
 ! D9    D(10,2,3,4)             0.5276         estimate D2E/DX2                !
 ! D10   D(10,2,3,16)         -179.7315         estimate D2E/DX2                !
 ! D11   D(1,2,10,5)           179.4517         estimate D2E/DX2                !
 ! D12   D(1,2,10,11)          -67.0378         estimate D2E/DX2                !
 ! D13   D(1,2,10,12)           67.4229         estimate D2E/DX2                !
 ! D14   D(3,2,10,5)            -0.5938         estimate D2E/DX2                !
 ! D15   D(3,2,10,11)          112.9166         estimate D2E/DX2                !
 ! D16   D(3,2,10,12)         -112.6227         estimate D2E/DX2                !
 ! D17   D(2,3,4,5)             -0.1456         estimate D2E/DX2                !
 ! D18   D(2,3,4,17)           179.465          estimate D2E/DX2                !
 ! D19   D(16,3,4,5)          -179.9023         estimate D2E/DX2                !
 ! D20   D(16,3,4,17)           -0.2917         estimate D2E/DX2                !
 ! D21   D(3,4,5,6)            178.4828         estimate D2E/DX2                !
 ! D22   D(3,4,5,10)            -0.2931         estimate D2E/DX2                !
 ! D23   D(17,4,5,6)            -1.1008         estimate D2E/DX2                !
 ! D24   D(17,4,5,10)         -179.8767         estimate D2E/DX2                !
 ! D25   D(4,5,6,7)           -139.801          estimate D2E/DX2                !
 ! D26   D(4,5,6,8)             68.2127         estimate D2E/DX2                !
 ! D27   D(4,5,6,9)             13.0543         estimate D2E/DX2                !
 ! D28   D(10,5,6,7)            38.8806         estimate D2E/DX2                !
 ! D29   D(10,5,6,8)          -113.1057         estimate D2E/DX2                !
 ! D30   D(10,5,6,9)          -168.2641         estimate D2E/DX2                !
 ! D31   D(4,5,10,2)             0.4989         estimate D2E/DX2                !
 ! D32   D(4,5,10,11)         -112.2719         estimate D2E/DX2                !
 ! D33   D(4,5,10,12)          113.2858         estimate D2E/DX2                !
 ! D34   D(6,5,10,2)          -178.2973         estimate D2E/DX2                !
 ! D35   D(6,5,10,11)           68.9319         estimate D2E/DX2                !
 ! D36   D(6,5,10,12)          -65.5104         estimate D2E/DX2                !
 ! D37   D(5,6,7,18)           -77.7198         estimate D2E/DX2                !
 ! D38   D(5,6,7,19)           162.2742         estimate D2E/DX2                !
 ! D39   D(5,6,7,20)            42.4041         estimate D2E/DX2                !
 ! D40   D(8,6,7,18)            73.7827         estimate D2E/DX2                !
 ! D41   D(8,6,7,19)           -46.2233         estimate D2E/DX2                !
 ! D42   D(8,6,7,20)          -166.0934         estimate D2E/DX2                !
 ! D43   D(9,6,7,18)           129.8295         estimate D2E/DX2                !
 ! D44   D(9,6,7,19)             9.8235         estimate D2E/DX2                !
 ! D45   D(9,6,7,20)          -110.0466         estimate D2E/DX2                !
 --------------------------------------------------------------------------------
 Trust Radius=3.00D-01 FncErr=1.00D-07 GrdErr=1.00D-06 EigMax=2.50D+02 EigMin=1.00D-04
 Number of steps in this run=    111 maximum allowed number of steps=    120.
 GradGradGradGradGradGradGradGradGradGradGradGradGradGradGradGradGradGrad

 Leave Link  103 at Thu Aug  2 15:38:49 2018, MaxMem=  1073741824 cpu:               0.2 elap:               0.4
 (Enter /shared/apps/gaussian/gaussian-16/g16/l202.exe)
                          Input orientation:                          
 ---------------------------------------------------------------------
 Center     Atomic      Atomic             Coordinates (Angstroms)
 Number     Number       Type             X           Y           Z
 ---------------------------------------------------------------------
      1          6           0       -3.338000    0.285000    0.005000
      2          6           0       -1.890000    0.557000   -0.070000
      3          6           0       -1.367000    1.768000   -0.313000
      4          6           0        0.111000    1.693000   -0.333000
      5          6           0        0.519000    0.433000   -0.099000
      6          6           0        1.916000    0.028000   -0.086000
      7          6           0        2.249000   -1.291000   -0.717000
      8          7           0        2.793000    0.553000    1.051000
      9          7           0        2.977000    1.127000   -0.048000
     10         16           0       -0.748000   -0.676000    0.153000
     11          8           0       -0.771000   -1.149000    1.483000
     12          8           0       -0.797000   -1.613000   -0.904000
     13          1           0       -3.640000   -0.455000   -0.755000
     14          1           0       -3.615000   -0.117000    0.993000
     15          1           0       -3.954000    1.180000   -0.160000
     16          1           0       -1.904000    2.699000   -0.482000
     17          1           0        0.732000    2.568000   -0.523000
     18          1           0        1.986000   -2.129000   -0.052000
     19          1           0        3.319000   -1.399000   -0.953000
     20          1           0        1.705000   -1.434000   -1.665000
 ---------------------------------------------------------------------
                    Distance matrix (angstroms):
                    1          2          3          4          5
     1  C    0.000000
     2  C    1.475233   0.000000
     3  C    2.487017   1.341305   0.000000
     4  C    3.740629   2.315959   1.480037   0.000000
     5  C    3.861239   2.412364   2.320564   1.344924   0.000000
     6  C    5.261069   3.842621   3.722528   2.468048   1.454580
     7  C    5.849755   4.578759   4.753541   3.690902   2.519325
     8  N    6.225360   4.815303   4.543382   3.226171   2.551073
     9  N    6.371106   4.900314   4.399027   2.935224   2.554604
    10  S    2.766500   1.695341   2.563875   2.566367   1.702549
    11  O    3.290947   2.564060   3.477028   3.486079   2.582547
    12  O    3.299298   2.568872   3.479273   3.475650   2.562420
    13  H    1.102907   2.134448   3.209926   4.343039   4.303041
    14  H    1.102033   2.135385   3.211287   4.349420   4.311023
    15  H    1.098957   2.157852   2.657390   4.100893   4.535357
    16  H    2.849723   2.181308   1.087976   2.257091   3.339517
    17  H    4.696357   3.335298   2.256081   1.089663   2.187092
    18  H    5.845992   4.715750   5.147557   4.266412   2.952650
    19  H    6.933200   5.633765   5.691932   4.498458   3.453338
    20  H    5.583521   4.408189   4.638738   3.754090   2.710100
                    6          7          8          9         10
     6  C    0.000000
     7  C    1.499604   0.000000
     8  N    1.528896   2.611914   0.000000
     9  N    1.528060   2.612330   1.253448   0.000000
    10  S    2.765797   3.180744   3.854287   4.143288   0.000000
    11  O    3.326719   3.739059   3.973100   4.644528   1.411792
    12  O    3.274504   3.068675   4.626195   4.741668   1.413372
    13  H    5.616937   5.948165   6.757306   6.840121   3.039238
    14  H    5.637129   6.220038   6.443192   6.788644   3.039370
    15  H    5.982431   6.700246   6.883434   6.932107   3.717680
    16  H    4.677976   5.763917   5.386763   5.146232   3.623560
    17  H    2.836270   4.151001   3.284117   2.709637   3.629175
    18  H    2.158403   1.101652   3.010147   3.403474   3.102900
    19  H    2.180923   1.101027   2.846576   2.704933   4.276266
    20  H    2.162222   1.102311   3.536746   3.285026   3.145933
                   11         12         13         14         15
    11  O    0.000000
    12  O    2.431818   0.000000
    13  H    3.704246   3.073404   0.000000
    14  H    3.064875   3.711839   1.780554   0.000000
    15  H    4.272608   4.280308   1.768006   1.768202   0.000000
    16  H    4.466768   4.471787   3.610532   3.610125   2.571681
    17  H    4.483206   4.468083   5.320408   5.329530   4.900705
    18  H    3.304190   2.955884   5.911714   6.042464   6.800349
    19  H    4.767043   4.121851   7.025526   7.315107   7.757359
    20  H    4.015184   2.621291   5.509589   6.091129   6.412667
                   16         17         18         19         20
    16  H    0.000000
    17  H    2.639572   0.000000
    18  H    6.215029   4.884277   0.000000
    19  H    6.655462   4.755477   1.766802   0.000000
    20  H    5.613026   4.273979   1.778695   1.764416   0.000000
 Stoichiometry    C7H8N2O2S
 Framework group  C1[X(C7H8N2O2S)]
 Deg. of freedom    54
 Full point group                 C1      NOp   1
 Largest Abelian subgroup         C1      NOp   1
 Largest concise Abelian subgroup C1      NOp   1
                         Standard orientation:                         
 ---------------------------------------------------------------------
 Center     Atomic      Atomic             Coordinates (Angstroms)
 Number     Number       Type             X           Y           Z
 ---------------------------------------------------------------------
      1          6           0       -3.333124    0.299776    0.004409
      2          6           0       -1.883590    0.562982   -0.072318
      3          6           0       -1.353448    1.771737   -0.310979
      4          6           0        0.124006    1.687518   -0.334314
      5          6           0        0.524517    0.423940   -0.106761
      6          6           0        1.918958    0.010094   -0.098402
      7          6           0        2.242367   -1.308144   -0.735949
      8          7           0        2.801527    0.524472    1.039144
      9          7           0        2.986944    1.102208   -0.057659
     10         16           0       -0.748946   -0.678172    0.142866
     11          8           0       -0.772267   -1.156958    1.470789
     12          8           0       -0.805972   -1.610111   -0.918198
     13          1           0       -3.641307   -0.434903   -0.758267
     14          1           0       -3.610675   -0.104883    0.991168
     15          1           0       -3.943795    1.199367   -0.155350
     16          1           0       -1.884902    2.706847   -0.474738
     17          1           0        0.750132    2.559430   -0.521673
     18          1           0        1.975418   -2.147435   -0.074158
     19          1           0        3.311190   -1.421826   -0.974600
     20          1           0        1.695579   -1.443476   -1.683471
 ---------------------------------------------------------------------
 Rotational constants (GHZ):           1.6813373           0.6995943           0.5842595
 Leave Link  202 at Thu Aug  2 15:38:49 2018, MaxMem=  1073741824 cpu:               0.1 elap:               0.0
 (Enter /shared/apps/gaussian/gaussian-16/g16/l301.exe)
 Standard basis: 6-31+G(d,p) (6D, 7F)
 Ernie: Thresh=  0.10000D-02 Tol=  0.10000D-05 Strict=F.
 There are   272 symmetry adapted cartesian basis functions of A   symmetry.
 There are   272 symmetry adapted basis functions of A   symmetry.
   272 basis functions,   464 primitive gaussians,   272 cartesian basis functions
    48 alpha electrons       48 beta electrons
       nuclear repulsion energy       847.7056503545 Hartrees.
 IExCor= 4235 DFT=T Ex+Corr=M06 ExCW=0 ScaHFX=  0.270000
 ScaDFX=  1.000000  1.000000  1.000000  1.000000 ScalE2=  1.000000  1.000000
 IRadAn=      5 IRanWt=     -1 IRanGd=            0 ICorTp=0 IEmpDi=  4
 NAtoms=   20 NActive=   20 NUniq=   20 SFac= 1.00D+00 NAtFMM=   60 NAOKFM=F Big=F
 Integral buffers will be    131072 words long.
 Raffenetti 2 integral format.
 Two-electron integral symmetry is turned on.
 Leave Link  301 at Thu Aug  2 15:38:49 2018, MaxMem=  1073741824 cpu:               0.6 elap:               0.1
 (Enter /shared/apps/gaussian/gaussian-16/g16/l302.exe)
 NPDir=0 NMtPBC=     1 NCelOv=     1 NCel=       1 NClECP=     1 NCelD=      1
         NCelK=      1 NCelE2=     1 NClLst=     1 CellRange=     0.0.
 One-electron integrals computed using PRISM.
 One-electron integral symmetry used in STVInt
 NBasis=   272 RedAO= T EigKep=  2.29D-06  NBF=   272
 NBsUse=   272 1.00D-06 EigRej= -1.00D+00 NBFU=   272
 Precomputing XC quadrature grid using
 IXCGrd= 4 IRadAn=           5 IRanWt=          -1 IRanGd=           0 AccXCQ= 0.00D+00.
 Generated NRdTot=       0 NPtTot=           0 NUsed=           0 NTot=          32
 NSgBfM=   272   272   272   272   272 MxSgAt=    20 MxSgA2=    20.
 Leave Link  302 at Thu Aug  2 15:38:49 2018, MaxMem=  1073741824 cpu:               5.3 elap:               0.3
 (Enter /shared/apps/gaussian/gaussian-16/g16/l303.exe)
 DipDrv:  MaxL=1.
 Leave Link  303 at Thu Aug  2 15:38:49 2018, MaxMem=  1073741824 cpu:               0.4 elap:               0.0
 (Enter /shared/apps/gaussian/gaussian-16/g16/l401.exe)
 ExpMin= 4.05D-02 ExpMax= 2.19D+04 ExpMxC= 3.30D+03 IAcc=3 IRadAn=         5 AccDes= 0.00D+00
 Harris functional with IExCor= 1009 and IRadAn=       5 diagonalized for initial guess.
 HarFok:  IExCor= 1009 AccDes= 0.00D+00 IRadAn=         5 IDoV= 1 UseB2=F ITyADJ=14
 ICtDFT=  3500011 ScaDFX=  1.000000  1.000000  1.000000  1.000000
 FoFCou: FMM=F IPFlag=           0 FMFlag=      100000 FMFlg1=           0
         NFxFlg=           0 DoJE=T BraDBF=F KetDBF=T FulRan=T
         wScrn=  0.000000 ICntrl=       500 IOpCl=  0 I1Cent=   200000004 NGrid=           0
         NMat0=    1 NMatS0=      1 NMatT0=    0 NMatD0=    1 NMtDS0=    0 NMtDT0=    0
 Petite list used in FoFCou.
 Harris En= -928.893976459507    
 JPrj=0 DoOrth=F DoCkMO=F.
 Leave Link  401 at Thu Aug  2 15:38:51 2018, MaxMem=  1073741824 cpu:              23.4 elap:               1.5
 (Enter /shared/apps/gaussian/gaussian-16/g16/l502.exe)
 Integral symmetry usage will be decided dynamically.
 Closed shell SCF:
 Using DIIS extrapolation, IDIIS=  1040.
 NGot=  1073741824 LenX=  1073586723 LenY=  1073512298
 Requested convergence on RMS density matrix=1.00D-08 within 128 cycles.
 Requested convergence on MAX density matrix=1.00D-06.
 Requested convergence on             energy=1.00D-06.
 No special actions if energy rises.
 Fock matrices will be formed incrementally for  20 cycles.

 Cycle   1  Pass 1  IDiag  1:
 FoFJK:  IHMeth= 1 ICntrl=       0 DoSepK=F KAlg= 0 I1Cent=           0 FoldK=F
 IRaf= 910000000 NMat=       1 IRICut=       1 DoRegI=T DoRafI=F ISym2E= 0 IDoP0=0 IntGTp=1.
 FoFCou: FMM=F IPFlag=           0 FMFlag=      100000 FMFlg1=           0
         NFxFlg=           0 DoJE=F BraDBF=F KetDBF=F FulRan=T
         wScrn=  0.000000 ICntrl=         0 IOpCl=  0 I1Cent=           0 NGrid=           0
         NMat0=    1 NMatS0=      1 NMatT0=    0 NMatD0=    1 NMtDS0=    0 NMtDT0=    0
 Symmetry not used in FoFCou.
 E= -928.813535101791    
 DIIS: error= 2.82D-02 at cycle   1 NSaved=   1.
 NSaved= 1 IEnMin= 1 EnMin= -928.813535101791     IErMin= 1 ErrMin= 2.82D-02
 ErrMax= 2.82D-02  0.00D+00 EMaxC= 1.00D-01 BMatC= 4.13D-01 BMatP= 4.13D-01
 IDIUse=3 WtCom= 7.18D-01 WtEn= 2.82D-01
 Coeff-Com:  0.100D+01
 Coeff-En:   0.100D+01
 Coeff:      0.100D+01
 Gap=     0.220 Goal=   None    Shift=    0.000
 GapD=    0.220 DampG=1.000 DampE=0.500 DampFc=0.5000 IDamp=-1.
 Damping current iteration by 5.00D-01
 RMSDP=4.48D-02 MaxDP=4.13D+00              OVMax= 2.38D-01

 Cycle   2  Pass 1  IDiag  1:
 RMSU=  1.74D-02    CP:  1.22D+00
 E= -928.934137863967     Delta-E=       -0.120602762176 Rises=F Damp=T
 DIIS: error= 7.74D-03 at cycle   2 NSaved=   2.
 NSaved= 2 IEnMin= 2 EnMin= -928.934137863967     IErMin= 2 ErrMin= 7.74D-03
 ErrMax= 7.74D-03  0.00D+00 EMaxC= 1.00D-01 BMatC= 3.24D-02 BMatP= 4.13D-01
 IDIUse=3 WtCom= 9.23D-01 WtEn= 7.74D-02
 Coeff-Com:  0.165D+00 0.835D+00
 Coeff-En:   0.283D+00 0.717D+00
 Coeff:      0.174D+00 0.826D+00
 Gap=     0.185 Goal=   None    Shift=    0.000
 RMSDP=1.31D-02 MaxDP=1.01D+00 DE=-1.21D-01 OVMax= 1.99D-01

 Cycle   3  Pass 1  IDiag  1:
 RMSU=  1.20D-02    CP:  1.14D+00  1.07D+00
 E= -929.150391186110     Delta-E=       -0.216253322143 Rises=F Damp=F
 DIIS: error= 4.88D-03 at cycle   3 NSaved=   3.
 NSaved= 3 IEnMin= 3 EnMin= -929.150391186110     IErMin= 3 ErrMin= 4.88D-03
 ErrMax= 4.88D-03  0.00D+00 EMaxC= 1.00D-01 BMatC= 1.75D-02 BMatP= 3.24D-02
 IDIUse=3 WtCom= 9.51D-01 WtEn= 4.88D-02
 Coeff-Com:  0.489D-01 0.437D+00 0.514D+00
 Coeff-En:   0.000D+00 0.000D+00 0.100D+01
 Coeff:      0.465D-01 0.416D+00 0.537D+00
 Gap=     0.158 Goal=   None    Shift=    0.000
 RMSDP=3.77D-03 MaxDP=3.71D-01 DE=-2.16D-01 OVMax= 3.18D-02

 Cycle   4  Pass 1  IDiag  1:
 RMSU=  2.90D-03    CP:  1.12D+00  9.81D-01  9.62D-01
 E= -929.164099212773     Delta-E=       -0.013708026663 Rises=F Damp=F
 DIIS: error= 1.35D-03 at cycle   4 NSaved=   4.
 NSaved= 4 IEnMin= 4 EnMin= -929.164099212773     IErMin= 4 ErrMin= 1.35D-03
 ErrMax= 1.35D-03  0.00D+00 EMaxC= 1.00D-01 BMatC= 1.87D-03 BMatP= 1.75D-02
 IDIUse=3 WtCom= 9.87D-01 WtEn= 1.35D-02
 Coeff-Com: -0.135D-03 0.830D-01 0.270D+00 0.648D+00
 Coeff-En:   0.000D+00 0.000D+00 0.540D-01 0.946D+00
 Coeff:     -0.133D-03 0.819D-01 0.267D+00 0.652D+00
 Gap=     0.161 Goal=   None    Shift=    0.000
 RMSDP=1.75D-03 MaxDP=1.55D-01 DE=-1.37D-02 OVMax= 1.25D-02

 Cycle   5  Pass 1  IDiag  1:
 RMSU=  1.04D-03    CP:  1.12D+00  1.04D+00  9.60D-01  6.71D-01
 E= -929.165496332487     Delta-E=       -0.001397119714 Rises=F Damp=F
 DIIS: error= 7.06D-04 at cycle   5 NSaved=   5.
 NSaved= 5 IEnMin= 5 EnMin= -929.165496332487     IErMin= 5 ErrMin= 7.06D-04
 ErrMax= 7.06D-04  0.00D+00 EMaxC= 1.00D-01 BMatC= 3.69D-04 BMatP= 1.87D-03
 IDIUse=3 WtCom= 9.93D-01 WtEn= 7.06D-03
 Coeff-Com: -0.439D-02 0.202D-01 0.132D+00 0.413D+00 0.439D+00
 Coeff-En:   0.000D+00 0.000D+00 0.000D+00 0.923D-01 0.908D+00
 Coeff:     -0.435D-02 0.200D-01 0.131D+00 0.411D+00 0.442D+00
 Gap=     0.160 Goal=   None    Shift=    0.000
 RMSDP=5.59D-04 MaxDP=3.92D-02 DE=-1.40D-03 OVMax= 5.61D-03

 Cycle   6  Pass 1  IDiag  1:
 RMSU=  3.93D-04    CP:  1.12D+00  1.05D+00  9.84D-01  7.19D-01  8.50D-01
 E= -929.165800613201     Delta-E=       -0.000304280714 Rises=F Damp=F
 DIIS: error= 2.86D-04 at cycle   6 NSaved=   6.
 NSaved= 6 IEnMin= 6 EnMin= -929.165800613201     IErMin= 6 ErrMin= 2.86D-04
 ErrMax= 2.86D-04  0.00D+00 EMaxC= 1.00D-01 BMatC= 3.10D-05 BMatP= 3.69D-04
 IDIUse=3 WtCom= 9.97D-01 WtEn= 2.86D-03
 Coeff-Com: -0.237D-02 0.118D-02 0.394D-01 0.147D+00 0.252D+00 0.563D+00
 Coeff-En:   0.000D+00 0.000D+00 0.000D+00 0.000D+00 0.362D-02 0.996D+00
 Coeff:     -0.237D-02 0.117D-02 0.393D-01 0.146D+00 0.252D+00 0.564D+00
 Gap=     0.160 Goal=   None    Shift=    0.000
 RMSDP=1.95D-04 MaxDP=1.40D-02 DE=-3.04D-04 OVMax= 1.77D-03

 Cycle   7  Pass 1  IDiag  1:
 RMSU=  1.40D-04    CP:  1.12D+00  1.05D+00  9.92D-01  7.25D-01  9.04D-01
                    CP:  8.41D-01
 E= -929.165820017833     Delta-E=       -0.000019404632 Rises=F Damp=F
 DIIS: error= 1.49D-04 at cycle   7 NSaved=   7.
 NSaved= 7 IEnMin= 7 EnMin= -929.165820017833     IErMin= 7 ErrMin= 1.49D-04
 ErrMax= 1.49D-04  0.00D+00 EMaxC= 1.00D-01 BMatC= 9.19D-06 BMatP= 3.10D-05
 IDIUse=3 WtCom= 9.99D-01 WtEn= 1.49D-03
 Coeff-Com: -0.719D-03-0.268D-02 0.372D-02 0.263D-01 0.849D-01 0.383D+00
 Coeff-Com:  0.506D+00
 Coeff-En:   0.000D+00 0.000D+00 0.000D+00 0.000D+00 0.000D+00 0.239D+00
 Coeff-En:   0.761D+00
 Coeff:     -0.718D-03-0.267D-02 0.372D-02 0.262D-01 0.848D-01 0.382D+00
 Coeff:      0.506D+00
 Gap=     0.160 Goal=   None    Shift=    0.000
 RMSDP=1.13D-04 MaxDP=1.08D-02 DE=-1.94D-05 OVMax= 1.60D-03

 Cycle   8  Pass 1  IDiag  1:
 RMSU=  4.46D-05    CP:  1.12D+00  1.05D+00  9.94D-01  7.25D-01  9.15D-01
                    CP:  9.40D-01  8.00D-01
 E= -929.165828338841     Delta-E=       -0.000008321008 Rises=F Damp=F
 DIIS: error= 3.18D-05 at cycle   8 NSaved=   8.
 NSaved= 8 IEnMin= 8 EnMin= -929.165828338841     IErMin= 8 ErrMin= 3.18D-05
 ErrMax= 3.18D-05  0.00D+00 EMaxC= 1.00D-01 BMatC= 6.71D-07 BMatP= 9.19D-06
 IDIUse=1 WtCom= 1.00D+00 WtEn= 0.00D+00
 Coeff-Com: -0.487D-04-0.163D-02-0.333D-02-0.612D-02 0.490D-02 0.111D+00
 Coeff-Com:  0.270D+00 0.626D+00
 Coeff:     -0.487D-04-0.163D-02-0.333D-02-0.612D-02 0.490D-02 0.111D+00
 Coeff:      0.270D+00 0.626D+00
 Gap=     0.160 Goal=   None    Shift=    0.000
 RMSDP=3.12D-05 MaxDP=2.58D-03 DE=-8.32D-06 OVMax= 3.87D-04

 Cycle   9  Pass 1  IDiag  1:
 RMSU=  2.15D-05    CP:  1.12D+00  1.05D+00  9.95D-01  7.29D-01  9.15D-01
                    CP:  9.54D-01  8.07D-01  8.55D-01
 E= -929.165828982370     Delta-E=       -0.000000643529 Rises=F Damp=F
 DIIS: error= 9.71D-06 at cycle   9 NSaved=   9.
 NSaved= 9 IEnMin= 9 EnMin= -929.165828982370     IErMin= 9 ErrMin= 9.71D-06
 ErrMax= 9.71D-06  0.00D+00 EMaxC= 1.00D-01 BMatC= 6.30D-08 BMatP= 6.71D-07
 IDIUse=1 WtCom= 1.00D+00 WtEn= 0.00D+00
 Coeff-Com:  0.103D-03-0.280D-03-0.194D-02-0.650D-02-0.124D-01-0.895D-02
 Coeff-Com:  0.616D-01 0.277D+00 0.691D+00
 Coeff:      0.103D-03-0.280D-03-0.194D-02-0.650D-02-0.124D-01-0.895D-02
 Coeff:      0.616D-01 0.277D+00 0.691D+00
 Gap=     0.160 Goal=   None    Shift=    0.000
 RMSDP=1.12D-05 MaxDP=4.49D-04 DE=-6.44D-07 OVMax= 1.69D-04

 Cycle  10  Pass 1  IDiag  1:
 RMSU=  8.67D-06    CP:  1.12D+00  1.05D+00  9.95D-01  7.29D-01  9.15D-01
                    CP:  9.62D-01  8.29D-01  9.10D-01  8.36D-01
 E= -929.165829053391     Delta-E=       -0.000000071021 Rises=F Damp=F
 DIIS: error= 3.52D-06 at cycle  10 NSaved=  10.
 NSaved=10 IEnMin=10 EnMin= -929.165829053391     IErMin=10 ErrMin= 3.52D-06
 ErrMax= 3.52D-06  0.00D+00 EMaxC= 1.00D-01 BMatC= 1.47D-08 BMatP= 6.30D-08
 IDIUse=1 WtCom= 1.00D+00 WtEn= 0.00D+00
 Coeff-Com:  0.568D-04 0.736D-05-0.610D-03-0.253D-02-0.699D-02-0.139D-01
 Coeff-Com:  0.128D-01 0.864D-01 0.380D+00 0.545D+00
 Coeff:      0.568D-04 0.736D-05-0.610D-03-0.253D-02-0.699D-02-0.139D-01
 Coeff:      0.128D-01 0.864D-01 0.380D+00 0.545D+00
 Gap=     0.160 Goal=   None    Shift=    0.000
 RMSDP=3.74D-06 MaxDP=3.83D-04 DE=-7.10D-08 OVMax= 9.18D-05

 Cycle  11  Pass 1  IDiag  1:
 RMSU=  2.25D-06    CP:  1.12D+00  1.05D+00  9.95D-01  7.29D-01  9.14D-01
                    CP:  9.62D-01  8.27D-01  9.00D-01  9.15D-01  9.64D-01
 E= -929.165829067870     Delta-E=       -0.000000014479 Rises=F Damp=F
 DIIS: error= 2.40D-06 at cycle  11 NSaved=  11.
 NSaved=11 IEnMin=11 EnMin= -929.165829067870     IErMin=11 ErrMin= 2.40D-06
 ErrMax= 2.40D-06  0.00D+00 EMaxC= 1.00D-01 BMatC= 3.15D-09 BMatP= 1.47D-08
 IDIUse=1 WtCom= 1.00D+00 WtEn= 0.00D+00
 Coeff-Com:  0.110D-04 0.647D-04 0.692D-04-0.783D-04-0.164D-02-0.719D-02
 Coeff-Com: -0.715D-02-0.198D-01 0.588D-01 0.338D+00 0.639D+00
 Coeff:      0.110D-04 0.647D-04 0.692D-04-0.783D-04-0.164D-02-0.719D-02
 Coeff:     -0.715D-02-0.198D-01 0.588D-01 0.338D+00 0.639D+00
 Gap=     0.160 Goal=   None    Shift=    0.000
 RMSDP=1.95D-06 MaxDP=1.05D-04 DE=-1.45D-08 OVMax= 3.07D-05

 Cycle  12  Pass 1  IDiag  1:
 RMSU=  8.57D-07    CP:  1.12D+00  1.05D+00  9.96D-01  7.29D-01  9.14D-01
                    CP:  9.64D-01  8.28D-01  9.12D-01  9.43D-01  1.06D+00
                    CP:  1.05D+00
 E= -929.165829071237     Delta-E=       -0.000000003367 Rises=F Damp=F
 DIIS: error= 3.66D-07 at cycle  12 NSaved=  12.
 NSaved=12 IEnMin=12 EnMin= -929.165829071237     IErMin=12 ErrMin= 3.66D-07
 ErrMax= 3.66D-07  0.00D+00 EMaxC= 1.00D-01 BMatC= 1.33D-10 BMatP= 3.15D-09
 IDIUse=1 WtCom= 1.00D+00 WtEn= 0.00D+00
 Coeff-Com: -0.968D-06 0.199D-04 0.809D-04 0.200D-03 0.865D-05-0.120D-02
 Coeff-Com: -0.344D-02-0.167D-01-0.149D-01 0.916D-01 0.224D+00 0.721D+00
 Coeff:     -0.968D-06 0.199D-04 0.809D-04 0.200D-03 0.865D-05-0.120D-02
 Coeff:     -0.344D-02-0.167D-01-0.149D-01 0.916D-01 0.224D+00 0.721D+00
 Gap=     0.160 Goal=   None    Shift=    0.000
 RMSDP=8.03D-07 MaxDP=4.36D-05 DE=-3.37D-09 OVMax= 1.07D-05

 Cycle  13  Pass 1  IDiag  1:
 RMSU=  3.68D-07    CP:  1.12D+00  1.05D+00  9.96D-01  7.29D-01  9.14D-01
                    CP:  9.65D-01  8.28D-01  9.15D-01  9.53D-01  1.08D+00
                    CP:  1.05D+00  1.15D+00
 E= -929.165829071429     Delta-E=       -0.000000000192 Rises=F Damp=F
 DIIS: error= 1.64D-07 at cycle  13 NSaved=  13.
 NSaved=13 IEnMin=13 EnMin= -929.165829071429     IErMin=13 ErrMin= 1.64D-07
 ErrMax= 1.64D-07  0.00D+00 EMaxC= 1.00D-01 BMatC= 2.93D-11 BMatP= 1.33D-10
 IDIUse=1 WtCom= 1.00D+00 WtEn= 0.00D+00
 Coeff-Com: -0.137D-05 0.627D-06 0.282D-04 0.915D-04 0.226D-03 0.529D-03
 Coeff-Com: -0.297D-03-0.376D-02-0.129D-01-0.643D-02-0.197D-01 0.304D+00
 Coeff-Com:  0.738D+00
 Coeff:     -0.137D-05 0.627D-06 0.282D-04 0.915D-04 0.226D-03 0.529D-03
 Coeff:     -0.297D-03-0.376D-02-0.129D-01-0.643D-02-0.197D-01 0.304D+00
 Coeff:      0.738D+00
 Gap=     0.160 Goal=   None    Shift=    0.000
 RMSDP=2.88D-07 MaxDP=2.37D-05 DE=-1.92D-10 OVMax= 4.76D-06

 Cycle  14  Pass 1  IDiag  1:
 RMSU=  1.15D-07    CP:  1.12D+00  1.05D+00  9.96D-01  7.29D-01  9.14D-01
                    CP:  9.65D-01  8.28D-01  9.17D-01  9.55D-01  1.09D+00
                    CP:  1.07D+00  1.25D+00  1.03D+00
 E= -929.165829071484     Delta-E=       -0.000000000055 Rises=F Damp=F
 DIIS: error= 8.78D-08 at cycle  14 NSaved=  14.
 NSaved=14 IEnMin=14 EnMin= -929.165829071484     IErMin=14 ErrMin= 8.78D-08
 ErrMax= 8.78D-08  0.00D+00 EMaxC= 1.00D-01 BMatC= 9.34D-12 BMatP= 2.93D-11
 IDIUse=1 WtCom= 1.00D+00 WtEn= 0.00D+00
 Coeff-Com: -0.783D-06-0.213D-05 0.785D-05 0.329D-04 0.154D-03 0.515D-03
 Coeff-Com:  0.202D-03-0.341D-03-0.720D-02-0.189D-01-0.494D-01 0.934D-01
 Coeff-Com:  0.463D+00 0.519D+00
 Coeff:     -0.783D-06-0.213D-05 0.785D-05 0.329D-04 0.154D-03 0.515D-03
 Coeff:      0.202D-03-0.341D-03-0.720D-02-0.189D-01-0.494D-01 0.934D-01
 Coeff:      0.463D+00 0.519D+00
 Gap=     0.160 Goal=   None    Shift=    0.000
 RMSDP=1.32D-07 MaxDP=1.20D-05 DE=-5.48D-11 OVMax= 1.77D-06

 Cycle  15  Pass 1  IDiag  1:
 RMSU=  5.47D-08    CP:  1.12D+00  1.05D+00  9.96D-01  7.29D-01  9.14D-01
                    CP:  9.65D-01  8.28D-01  9.18D-01  9.55D-01  1.10D+00
                    CP:  1.07D+00  1.28D+00  1.13D+00  1.02D+00
 E= -929.165829071502     Delta-E=       -0.000000000018 Rises=F Damp=F
 DIIS: error= 2.43D-08 at cycle  15 NSaved=  15.
 NSaved=15 IEnMin=15 EnMin= -929.165829071502     IErMin=15 ErrMin= 2.43D-08
 ErrMax= 2.43D-08  0.00D+00 EMaxC= 1.00D-01 BMatC= 6.30D-13 BMatP= 9.34D-12
 IDIUse=1 WtCom= 1.00D+00 WtEn= 0.00D+00
 Coeff-Com: -0.120D-06-0.108D-05-0.162D-05-0.306D-05 0.254D-04 0.137D-03
 Coeff-Com:  0.167D-03 0.610D-03-0.542D-03-0.665D-02-0.179D-01-0.870D-02
 Coeff-Com:  0.888D-01 0.247D+00 0.697D+00
 Coeff:     -0.120D-06-0.108D-05-0.162D-05-0.306D-05 0.254D-04 0.137D-03
 Coeff:      0.167D-03 0.610D-03-0.542D-03-0.665D-02-0.179D-01-0.870D-02
 Coeff:      0.888D-01 0.247D+00 0.697D+00
 Gap=     0.160 Goal=   None    Shift=    0.000
 RMSDP=5.69D-08 MaxDP=4.91D-06 DE=-1.77D-11 OVMax= 5.77D-07

 Cycle  16  Pass 1  IDiag  1:
 RMSU=  1.54D-08    CP:  1.12D+00  1.05D+00  9.96D-01  7.29D-01  9.14D-01
                    CP:  9.65D-01  8.28D-01  9.18D-01  9.56D-01  1.10D+00
                    CP:  1.08D+00  1.30D+00  1.16D+00  1.09D+00  1.01D+00
 E= -929.165829071503     Delta-E=       -0.000000000002 Rises=F Damp=F
 DIIS: error= 7.18D-09 at cycle  16 NSaved=  16.
 NSaved=16 IEnMin=16 EnMin= -929.165829071503     IErMin=16 ErrMin= 7.18D-09
 ErrMax= 7.18D-09  0.00D+00 EMaxC= 1.00D-01 BMatC= 3.64D-14 BMatP= 6.30D-13
 IDIUse=1 WtCom= 1.00D+00 WtEn= 0.00D+00
 Coeff-Com:  0.818D-08-0.649D-07-0.123D-05-0.430D-05-0.765D-05-0.150D-04
 Coeff-Com:  0.143D-04 0.222D-03 0.598D-03-0.261D-03 0.540D-03-0.137D-01
 Coeff-Com: -0.235D-01 0.168D-01 0.174D+00 0.845D+00
 Coeff:      0.818D-08-0.649D-07-0.123D-05-0.430D-05-0.765D-05-0.150D-04
 Coeff:      0.143D-04 0.222D-03 0.598D-03-0.261D-03 0.540D-03-0.137D-01
 Coeff:     -0.235D-01 0.168D-01 0.174D+00 0.845D+00
 Gap=     0.160 Goal=   None    Shift=    0.000
 RMSDP=3.94D-08 MaxDP=3.94D-06 DE=-1.59D-12 OVMax= 2.57D-07

 Cycle  17  Pass 1  IDiag  1:
 RMSU=  4.68D-09    CP:  1.12D+00  1.05D+00  9.96D-01  7.29D-01  9.14D-01
                    CP:  9.65D-01  8.28D-01  9.18D-01  9.56D-01  1.10D+00
                    CP:  1.07D+00  1.30D+00  1.17D+00  1.14D+00  1.07D+00
                    CP:  1.10D+00
 E= -929.165829071470     Delta-E=        0.000000000033 Rises=F Damp=F
 DIIS: error= 3.34D-09 at cycle  17 NSaved=  17.
 NSaved=17 IEnMin=16 EnMin= -929.165829071503     IErMin=17 ErrMin= 3.34D-09
 ErrMax= 3.34D-09  0.00D+00 EMaxC= 1.00D-01 BMatC= 9.41D-15 BMatP= 3.64D-14
 IDIUse=1 WtCom= 1.00D+00 WtEn= 0.00D+00
 Coeff-Com:  0.123D-07 0.133D-06-0.349D-06-0.152D-05-0.550D-05-0.218D-04
 Coeff-Com: -0.143D-04 0.405D-04 0.324D-03 0.463D-03 0.230D-02-0.521D-02
 Coeff-Com: -0.194D-01-0.148D-01-0.659D-02 0.366D+00 0.677D+00
 Coeff:      0.123D-07 0.133D-06-0.349D-06-0.152D-05-0.550D-05-0.218D-04
 Coeff:     -0.143D-04 0.405D-04 0.324D-03 0.463D-03 0.230D-02-0.521D-02
 Coeff:     -0.194D-01-0.148D-01-0.659D-02 0.366D+00 0.677D+00
 Gap=     0.160 Goal=   None    Shift=    0.000
 RMSDP=1.19D-08 MaxDP=1.28D-06 DE= 3.32D-11 OVMax= 6.63D-08

 Cycle  18  Pass 1  IDiag  1:
 RMSU=  1.62D-09    CP:  1.12D+00  1.05D+00  9.96D-01  7.29D-01  9.14D-01
                    CP:  9.65D-01  8.28D-01  9.18D-01  9.56D-01  1.10D+00
                    CP:  1.07D+00  1.30D+00  1.18D+00  1.16D+00  1.09D+00
                    CP:  1.14D+00  1.16D+00
 E= -929.165829071501     Delta-E=       -0.000000000031 Rises=F Damp=F
 DIIS: error= 9.48D-10 at cycle  18 NSaved=  18.
 NSaved=18 IEnMin=16 EnMin= -929.165829071503     IErMin=18 ErrMin= 9.48D-10
 ErrMax= 9.48D-10  0.00D+00 EMaxC= 1.00D-01 BMatC= 9.96D-16 BMatP= 9.41D-15
 IDIUse=1 WtCom= 1.00D+00 WtEn= 0.00D+00
 Large coefficients: NSaved= 18 BigCof=    0.00 CofMax=   10.00 Det=-4.01D-15
 Inversion failed.  Reducing to 17 matrices.
 Large coefficients: NSaved= 17 BigCof=    0.00 CofMax=   10.00 Det=-4.06D-15
 Inversion failed.  Reducing to 16 matrices.
 Large coefficients: NSaved= 16 BigCof=    0.00 CofMax=   10.00 Det=-4.25D-15
 Inversion failed.  Reducing to 15 matrices.
 Coeff-Com:  0.158D-06 0.209D-06-0.233D-05-0.406D-05-0.101D-04-0.762D-05
 Coeff-Com:  0.258D-04 0.437D-03 0.598D-03-0.674D-03-0.157D-02-0.278D-01
 Coeff-Com: -0.280D-01 0.137D+00 0.920D+00
 Coeff:      0.158D-06 0.209D-06-0.233D-05-0.406D-05-0.101D-04-0.762D-05
 Coeff:      0.258D-04 0.437D-03 0.598D-03-0.674D-03-0.157D-02-0.278D-01
 Coeff:     -0.280D-01 0.137D+00 0.920D+00
 Gap=     0.160 Goal=   None    Shift=    0.000
 RMSDP=3.59D-09 MaxDP=3.26D-07 DE=-3.07D-11 OVMax= 2.95D-08

 SCF Done:  E(RM06) =  -929.165829072     A.U. after   18 cycles
            NFock= 18  Conv=0.36D-08     -V/T= 2.0070
 KE= 9.227011944875D+02 PE=-3.875775431714D+03 EE= 1.176202757801D+03
 Leave Link  502 at Thu Aug  2 15:40:18 2018, MaxMem=  1073741824 cpu:            1382.6 elap:              87.1
 (Enter /shared/apps/gaussian/gaussian-16/g16/l601.exe)
 Copying SCF densities to generalized density rwf, IOpCl= 0 IROHF=0.

 **********************************************************************

            Population analysis using the SCF density.

 **********************************************************************

 Orbital symmetries:
       Occupied  (A) (A) (A) (A) (A) (A) (A) (A) (A) (A) (A) (A)
                 (A) (A) (A) (A) (A) (A) (A) (A) (A) (A) (A) (A)
                 (A) (A) (A) (A) (A) (A) (A) (A) (A) (A) (A) (A)
                 (A) (A) (A) (A) (A) (A) (A) (A) (A) (A) (A) (A)
       Virtual   (A) (A) (A) (A) (A) (A) (A) (A) (A) (A) (A) (A)
                 (A) (A) (A) (A) (A) (A) (A) (A) (A) (A) (A) (A)
                 (A) (A) (A) (A) (A) (A) (A) (A) (A) (A) (A) (A)
                 (A) (A) (A) (A) (A) (A) (A) (A) (A) (A) (A) (A)
                 (A) (A) (A) (A) (A) (A) (A) (A) (A) (A) (A) (A)
                 (A) (A) (A) (A) (A) (A) (A) (A) (A) (A) (A) (A)
                 (A) (A) (A) (A) (A) (A) (A) (A) (A) (A) (A) (A)
                 (A) (A) (A) (A) (A) (A) (A) (A) (A) (A) (A) (A)
                 (A) (A) (A) (A) (A) (A) (A) (A) (A) (A) (A) (A)
                 (A) (A) (A) (A) (A) (A) (A) (A) (A) (A) (A) (A)
                 (A) (A) (A) (A) (A) (A) (A) (A) (A) (A) (A) (A)
                 (A) (A) (A) (A) (A) (A) (A) (A) (A) (A) (A) (A)
                 (A) (A) (A) (A) (A) (A) (A) (A) (A) (A) (A) (A)
                 (A) (A) (A) (A) (A) (A) (A) (A) (A) (A) (A) (A)
                 (A) (A) (A) (A) (A) (A) (A) (A) (A) (A) (A) (A)
                 (A) (A) (A) (A) (A) (A) (A) (A) (A) (A) (A) (A)
                 (A) (A) (A) (A) (A) (A) (A) (A) (A) (A) (A) (A)
                 (A) (A) (A) (A) (A) (A) (A) (A) (A) (A) (A) (A)
                 (A) (A) (A) (A) (A) (A) (A) (A)
 The electronic state is 1-A.
 Alpha  occ. eigenvalues --  -89.28994 -19.25495 -19.25385 -14.52511 -14.52385
 Alpha  occ. eigenvalues --  -10.36035 -10.31661 -10.31161 -10.31044 -10.30862
 Alpha  occ. eigenvalues --  -10.28477 -10.27298  -8.26415  -6.18140  -6.18049
 Alpha  occ. eigenvalues --   -6.18022  -1.18690  -1.14478  -1.07327  -0.92882
 Alpha  occ. eigenvalues --   -0.83718  -0.78654  -0.75108  -0.72442  -0.65456
 Alpha  occ. eigenvalues --   -0.64475  -0.62336  -0.58137  -0.55450  -0.51680
 Alpha  occ. eigenvalues --   -0.50472  -0.49559  -0.49152  -0.47680  -0.45562
 Alpha  occ. eigenvalues --   -0.44981  -0.43943  -0.42719  -0.41030  -0.40591
 Alpha  occ. eigenvalues --   -0.39245  -0.38614  -0.37761  -0.37498  -0.34305
 Alpha  occ. eigenvalues --   -0.33846  -0.30462  -0.25754
 Alpha virt. eigenvalues --   -0.09773  -0.08028  -0.03314  -0.02033  -0.01556
 Alpha virt. eigenvalues --   -0.00363  -0.00069   0.00553   0.00709   0.01128
 Alpha virt. eigenvalues --    0.02328   0.02425   0.02813   0.03344   0.03899
 Alpha virt. eigenvalues --    0.04783   0.05235   0.05565   0.07194   0.07368
 Alpha virt. eigenvalues --    0.08382   0.08617   0.08903   0.09317   0.10717
 Alpha virt. eigenvalues --    0.10886   0.11270   0.11765   0.12453   0.13413
 Alpha virt. eigenvalues --    0.13581   0.14737   0.14991   0.15681   0.16452
 Alpha virt. eigenvalues --    0.16610   0.16991   0.17656   0.17824   0.18621
 Alpha virt. eigenvalues --    0.19103   0.19963   0.20087   0.20538   0.20870
 Alpha virt. eigenvalues --    0.21666   0.22223   0.22851   0.23318   0.23637
 Alpha virt. eigenvalues --    0.24721   0.25989   0.26503   0.27059   0.27876
 Alpha virt. eigenvalues --    0.28065   0.29097   0.29835   0.30748   0.31283
 Alpha virt. eigenvalues --    0.31933   0.32233   0.33279   0.33856   0.35048
 Alpha virt. eigenvalues --    0.35381   0.36777   0.38528   0.40990   0.41137
 Alpha virt. eigenvalues --    0.43344   0.51539   0.52214   0.56101   0.60943
 Alpha virt. eigenvalues --    0.61342   0.62149   0.63139   0.64391   0.65363
 Alpha virt. eigenvalues --    0.66036   0.66971   0.69278   0.70597   0.72189
 Alpha virt. eigenvalues --    0.72751   0.75411   0.76352   0.77485   0.78861
 Alpha virt. eigenvalues --    0.80273   0.81106   0.82450   0.83650   0.85498
 Alpha virt. eigenvalues --    0.87561   0.89482   0.91178   0.91790   0.93320
 Alpha virt. eigenvalues --    0.94140   0.94400   0.95262   0.96532   0.97659
 Alpha virt. eigenvalues --    0.99506   1.00839   1.02772   1.05154   1.06810
 Alpha virt. eigenvalues --    1.07682   1.09058   1.10080   1.11668   1.12884
 Alpha virt. eigenvalues --    1.15727   1.16786   1.20884   1.22526   1.24693
 Alpha virt. eigenvalues --    1.25791   1.27604   1.29399   1.31791   1.33884
 Alpha virt. eigenvalues --    1.36346   1.37792   1.39553   1.39865   1.40979
 Alpha virt. eigenvalues --    1.44001   1.44534   1.45892   1.48565   1.51928
 Alpha virt. eigenvalues --    1.52931   1.55241   1.58967   1.67503   1.68096
 Alpha virt. eigenvalues --    1.69537   1.71813   1.73509   1.75765   1.76768
 Alpha virt. eigenvalues --    1.79967   1.80810   1.81591   1.82843   1.83245
 Alpha virt. eigenvalues --    1.85889   1.88589   1.89189   1.91545   1.94599
 Alpha virt. eigenvalues --    1.95529   1.98964   1.99752   2.01898   2.04010
 Alpha virt. eigenvalues --    2.05167   2.05555   2.07693   2.09857   2.11100
 Alpha virt. eigenvalues --    2.14396   2.15231   2.16286   2.18489   2.19372
 Alpha virt. eigenvalues --    2.20775   2.23681   2.28464   2.31887   2.32610
 Alpha virt. eigenvalues --    2.37763   2.38243   2.39192   2.39910   2.40709
 Alpha virt. eigenvalues --    2.44647   2.45796   2.47307   2.51248   2.52721
 Alpha virt. eigenvalues --    2.53853   2.54539   2.61951   2.63710   2.68977
 Alpha virt. eigenvalues --    2.70274   2.73544   2.76052   2.77539   2.81181
 Alpha virt. eigenvalues --    2.82833   2.84292   2.88160   2.90086   2.95010
 Alpha virt. eigenvalues --    2.96559   3.00291   3.03103   3.12124   3.21584
 Alpha virt. eigenvalues --    3.24546   3.27335   3.37058   3.40208   3.41182
 Alpha virt. eigenvalues --    3.42455   3.56970   3.93187   4.00267   4.07476
 Alpha virt. eigenvalues --    4.21251   4.24892   4.27777   4.34257   4.41204
 Alpha virt. eigenvalues --    4.43834   4.52026   4.62935   4.65098
          Condensed to atoms (all electrons):
               1          2          3          4          5          6
     1  C    9.091561  -1.069807  -1.333025   0.915553  -0.943502  -1.352176
     2  C   -1.069807   9.669775  -1.444467   2.353054   0.815033  -3.041193
     3  C   -1.333025  -1.444467   8.945283  -3.701364   1.685996   1.925866
     4  C    0.915553   2.353054  -3.701364  13.087519  -4.384023  -2.003883
     5  C   -0.943502   0.815033   1.685996  -4.384023  24.554249 -12.536040
     6  C   -1.352176  -3.041193   1.925866  -2.003883 -12.536040  21.815814
     7  C   -0.097483  -0.241724   0.002434   0.043569  -3.142703   1.802197
     8  N   -0.001746  -0.066309   0.096542  -0.075413  -0.005069   0.459547
     9  N   -0.008778  -0.044411   0.026726   0.011322  -0.110830   0.483193
    10  S   -0.021278  -0.233888  -0.236586  -0.794328   0.692306  -0.937963
    11  O   -0.186968  -0.091802   0.064364   0.062669   0.118303  -0.087858
    12  O   -0.012203  -0.098905  -0.052723   0.091324  -0.088984  -0.143687
    13  H    0.463177  -0.097831  -0.025177  -0.005162  -0.013481   0.000013
    14  H    0.436101  -0.078660  -0.025037   0.009886  -0.005717  -0.002801
    15  H    0.479833  -0.149231   0.024934   0.002249  -0.008945  -0.000181
    16  H   -0.012865   0.138075   0.091133   0.106623  -0.037165   0.000545
    17  H    0.004040  -0.035836   0.057288   0.032921   0.232889  -0.017050
    18  H    0.000920   0.014012  -0.001688  -0.027259   0.086392  -0.120555
    19  H    0.000226   0.001740  -0.000809  -0.005617   0.028345  -0.171992
    20  H   -0.001293  -0.012152   0.013182  -0.002458   0.023526   0.051485
               7          8          9         10         11         12
     1  C   -0.097483  -0.001746  -0.008778  -0.021278  -0.186968  -0.012203
     2  C   -0.241724  -0.066309  -0.044411  -0.233888  -0.091802  -0.098905
     3  C    0.002434   0.096542   0.026726  -0.236586   0.064364  -0.052723
     4  C    0.043569  -0.075413   0.011322  -0.794328   0.062669   0.091324
     5  C   -3.142703  -0.005069  -0.110830   0.692306   0.118303  -0.088984
     6  C    1.802197   0.459547   0.483193  -0.937963  -0.087858  -0.143687
     7  C    7.222703  -0.227570  -0.151719  -0.173070   0.011110   0.028833
     8  N   -0.227570   6.357468   0.398057  -0.028817   0.000672  -0.003813
     9  N   -0.151719   0.398057   6.377459   0.012323  -0.002348   0.005049
    10  S   -0.173070  -0.028817   0.012323  15.790703   0.254313   0.361267
    11  O    0.011110   0.000672  -0.002348   0.254313   8.606871  -0.285645
    12  O    0.028833  -0.003813   0.005049   0.361267  -0.285645   8.721065
    13  H   -0.001077   0.000001  -0.000011   0.023490  -0.002157   0.006878
    14  H    0.000784   0.000005   0.000007   0.011161   0.005871  -0.001967
    15  H   -0.000040   0.000002  -0.000005   0.006664  -0.000109  -0.000102
    16  H    0.000140  -0.000094   0.000202   0.022334  -0.000580  -0.000459
    17  H    0.000229   0.004643  -0.008551   0.035927  -0.000126  -0.000359
    18  H    0.373716  -0.011323   0.008966   0.027484  -0.000443  -0.002570
    19  H    0.503402   0.006082  -0.005546  -0.000797   0.000276   0.000314
    20  H    0.277569   0.011368  -0.006866   0.002599   0.000246  -0.005294
              13         14         15         16         17         18
     1  C    0.463177   0.436101   0.479833  -0.012865   0.004040   0.000920
     2  C   -0.097831  -0.078660  -0.149231   0.138075  -0.035836   0.014012
     3  C   -0.025177  -0.025037   0.024934   0.091133   0.057288  -0.001688
     4  C   -0.005162   0.009886   0.002249   0.106623   0.032921  -0.027259
     5  C   -0.013481  -0.005717  -0.008945  -0.037165   0.232889   0.086392
     6  C    0.000013  -0.002801  -0.000181   0.000545  -0.017050  -0.120555
     7  C   -0.001077   0.000784  -0.000040   0.000140   0.000229   0.373716
     8  N    0.000001   0.000005   0.000002  -0.000094   0.004643  -0.011323
     9  N   -0.000011   0.000007  -0.000005   0.000202  -0.008551   0.008966
    10  S    0.023490   0.011161   0.006664   0.022334   0.035927   0.027484
    11  O   -0.002157   0.005871  -0.000109  -0.000580  -0.000126  -0.000443
    12  O    0.006878  -0.001967  -0.000102  -0.000459  -0.000359  -0.002570
    13  H    0.507130  -0.025445  -0.024053   0.000120   0.000003  -0.000000
    14  H   -0.025445   0.504577  -0.024081   0.000093   0.000002   0.000000
    15  H   -0.024053  -0.024081   0.519255   0.000922  -0.000003   0.000000
    16  H    0.000120   0.000093   0.000922   0.522103  -0.002487   0.000000
    17  H    0.000003   0.000002  -0.000003  -0.002487   0.514079  -0.000006
    18  H   -0.000000   0.000000   0.000000   0.000000  -0.000006   0.506413
    19  H    0.000000  -0.000000   0.000000  -0.000000   0.000001  -0.023436
    20  H    0.000000  -0.000000   0.000000   0.000000   0.000015  -0.024262
              19         20
     1  C    0.000226  -0.001293
     2  C    0.001740  -0.012152
     3  C   -0.000809   0.013182
     4  C   -0.005617  -0.002458
     5  C    0.028345   0.023526
     6  C   -0.171992   0.051485
     7  C    0.503402   0.277569
     8  N    0.006082   0.011368
     9  N   -0.005546  -0.006866
    10  S   -0.000797   0.002599
    11  O    0.000276   0.000246
    12  O    0.000314  -0.005294
    13  H    0.000000   0.000000
    14  H   -0.000000  -0.000000
    15  H    0.000000   0.000000
    16  H   -0.000000   0.000000
    17  H    0.000001   0.000015
    18  H   -0.023436  -0.024262
    19  H    0.519063  -0.023177
    20  H   -0.023177   0.498540
 Mulliken charges:
               1
     1  C   -0.350286
     2  C   -0.285473
     3  C   -0.112874
     4  C    0.282819
     5  C   -0.960577
     6  C   -0.123282
     7  C   -0.231301
     8  N    0.085766
     9  N    0.015761
    10  S    1.186156
    11  O   -0.466658
    12  O   -0.518019
    13  H    0.193581
    14  H    0.195220
    15  H    0.172892
    16  H    0.171361
    17  H    0.182381
    18  H    0.193640
    19  H    0.171923
    20  H    0.196969
 Sum of Mulliken charges =  -0.00000
 Mulliken charges with hydrogens summed into heavy atoms:
               1
     1  C    0.211408
     2  C   -0.285473
     3  C    0.058487
     4  C    0.465200
     5  C   -0.960577
     6  C   -0.123282
     7  C    0.331232
     8  N    0.085766
     9  N    0.015761
    10  S    1.186156
    11  O   -0.466658
    12  O   -0.518019
 Electronic spatial extent (au):  <R**2>=           2023.3235
 Charge=             -0.0000 electrons
 Dipole moment (field-independent basis, Debye):
    X=             -1.7004    Y=              3.1336    Z=             -1.8096  Tot=              3.9982
 Quadrupole moment (field-independent basis, Debye-Ang):
   XX=            -71.3480   YY=            -75.0341   ZZ=            -83.8836
   XY=             -9.0005   XZ=             -2.1712   YZ=             -0.4241
 Traceless Quadrupole moment (field-independent basis, Debye-Ang):
   XX=              5.4072   YY=              1.7211   ZZ=             -7.1283
   XY=             -9.0005   XZ=             -2.1712   YZ=             -0.4241
 Octapole moment (field-independent basis, Debye-Ang**2):
  XXX=            -46.1101  YYY=             12.9942  ZZZ=             -4.7196  XYY=             -2.0096
  XXY=            -12.7533  XXZ=             -6.3020  XZZ=             -1.4230  YZZ=              0.1182
  YYZ=             -2.0811  XYZ=              3.4186
 Hexadecapole moment (field-independent basis, Debye-Ang**3):
 XXXX=          -1726.3985 YYYY=           -612.2531 ZZZZ=           -286.1673 XXXY=            -55.5260
 XXXZ=            -19.3085 YYYX=            -23.5421 YYYZ=            -15.5815 ZZZX=             -9.7065
 ZZZY=              6.8358 XXYY=           -398.8601 XXZZ=           -356.9808 YYZZ=           -164.6040
 XXYZ=              4.7175 YYXZ=              3.3143 ZZXY=             -4.1244
 N-N= 8.477056503545D+02 E-N=-3.875775431964D+03  KE= 9.227011944875D+02
 No NMR shielding tensors so no spin-rotation constants.
 Leave Link  601 at Thu Aug  2 15:40:18 2018, MaxMem=  1073741824 cpu:               2.7 elap:               0.2
 (Enter /shared/apps/gaussian/gaussian-16/g16/l701.exe)
 ... and contract with generalized density number  0.
 Compute integral first derivatives.
 Leave Link  701 at Thu Aug  2 15:40:19 2018, MaxMem=  1073741824 cpu:               2.8 elap:               0.2
 (Enter /shared/apps/gaussian/gaussian-16/g16/l702.exe)
 L702 exits ... SP integral derivatives will be done elsewhere.
 Leave Link  702 at Thu Aug  2 15:40:19 2018, MaxMem=  1073741824 cpu:               0.2 elap:               0.0
 (Enter /shared/apps/gaussian/gaussian-16/g16/l703.exe)
 Integral derivatives from FoFJK, PRISM(SPDF).
 Compute integral first derivatives, UseDBF=F ICtDFT=           0.
 Calling FoFJK, ICntrl=      2127 FMM=F ISym2X=0 I1Cent= 0 IOpClX= 0 NMat=1 NMatS=1 NMatT=0.
 FoFJK:  IHMeth= 1 ICntrl=    2127 DoSepK=F KAlg= 0 I1Cent=           0 FoldK=F
 IRaf=         0 NMat=       1 IRICut=       1 DoRegI=T DoRafI=F ISym2E= 0 IDoP0=0 IntGTp=1.
 FoFCou: FMM=F IPFlag=           0 FMFlag=      100000 FMFlg1=         800
         NFxFlg=           0 DoJE=F BraDBF=F KetDBF=F FulRan=T
         wScrn=  0.000000 ICntrl=      2127 IOpCl=  0 I1Cent=           0 NGrid=           0
         NMat0=    1 NMatS0=      1 NMatT0=    0 NMatD0=    1 NMtDS0=    0 NMtDT0=    0
 Symmetry not used in FoFCou.
 Leave Link  703 at Thu Aug  2 15:40:28 2018, MaxMem=  1073741824 cpu:             153.0 elap:               9.6
 (Enter /shared/apps/gaussian/gaussian-16/g16/l716.exe)
 Dipole        =-6.69006142D-01 1.23286006D+00-7.11966732D-01
 ***** Axes restored to original set *****
 -------------------------------------------------------------------
 Center     Atomic                   Forces (Hartrees/Bohr)
 Number     Number              X              Y              Z
 -------------------------------------------------------------------
      1        6          -0.013583211   -0.011119713    0.001853164
      2        6          -0.063703201    0.048056350   -0.007853858
      3        6           0.021320132   -0.008677164    0.001639771
      4        6          -0.020418912   -0.003867165    0.003215722
      5        6           0.063412509    0.043174989   -0.007327584
      6        6           0.035257154    0.009947029    0.013646420
      7        6           0.009519556   -0.006629706   -0.001981935
      8        7          -0.006484069    0.007050637   -0.047560068
      9        7          -0.026080693   -0.034465619    0.028565412
     10       16           0.003720705    0.026816560   -0.007399223
     11        8          -0.000669198   -0.020973853    0.065691463
     12        8          -0.006065470   -0.044728492   -0.052855441
     13        1           0.000693643   -0.000122619    0.003549261
     14        1           0.000540752   -0.001558805   -0.002790397
     15        1           0.006130074   -0.000256176    0.000004267
     16        1          -0.003208005   -0.004873908    0.000835459
     17        1           0.003083771   -0.006199551    0.001084758
     18        1          -0.001004214    0.001931648   -0.001668655
     19        1          -0.002654222    0.004199175    0.003893820
     20        1           0.000192897    0.002296381    0.005457646
 -------------------------------------------------------------------
 Cartesian Forces:  Max     0.065691463 RMS     0.022716040
 Leave Link  716 at Thu Aug  2 15:40:28 2018, MaxMem=  1073741824 cpu:               0.3 elap:               0.0
 (Enter /shared/apps/gaussian/gaussian-16/g16/l103.exe)

 GradGradGradGradGradGradGradGradGradGradGradGradGradGradGradGradGradGrad
 Berny optimization.
 FormGI is forming the generalized inverse of G from B-inverse, IUseBI=4.
 Internal  Forces:  Max     0.069391043 RMS     0.014273221
 Search for a local minimum.
 Step number   1 out of a maximum of  111
 All quantities printed in internal units (Hartrees-Bohrs-Radians)
 RMS Force = .14273D-01 SwitMx=.10000D-02 MixMth= 1
 Mixed Optimization -- RFO/linear search
 Second derivative matrix not updated -- first step.
 ITU=  0
     Eigenvalues ---    0.00771   0.01094   0.01367   0.01584   0.01776
     Eigenvalues ---    0.01813   0.01931   0.02132   0.02327   0.02356
     Eigenvalues ---    0.05557   0.05698   0.07182   0.07392   0.10418
     Eigenvalues ---    0.11293   0.11823   0.12999   0.15999   0.16000
     Eigenvalues ---    0.16000   0.16000   0.16000   0.16000   0.16000
     Eigenvalues ---    0.16000   0.19939   0.22129   0.22796   0.23544
     Eigenvalues ---    0.24595   0.24992   0.25000   0.27329   0.29565
     Eigenvalues ---    0.32419   0.33123   0.33363   0.33428   0.33458
     Eigenvalues ---    0.33500   0.33569   0.33798   0.34687   0.34852
     Eigenvalues ---    0.35048   0.35121   0.35647   0.37651   0.52117
     Eigenvalues ---    0.55972   0.62321   1.14346   1.15241
 RFO step:  Lambda=-4.01888417D-02 EMin= 7.71190949D-03
 Linear search not attempted -- first point.
 Maximum step size (   0.300) exceeded in Quadratic search.
    -- Step size scaled by   0.929
 Iteration  1 RMS(Cart)=  0.06828959 RMS(Int)=  0.00100984
 Iteration  2 RMS(Cart)=  0.00129669 RMS(Int)=  0.00023475
 Iteration  3 RMS(Cart)=  0.00000134 RMS(Int)=  0.00023475
 Iteration  4 RMS(Cart)=  0.00000000 RMS(Int)=  0.00023475
 ITry= 1 IFail=0 DXMaxC= 2.40D-01 DCOld= 1.00D+10 DXMaxT= 3.00D-01 DXLimC= 3.00D+00 Rises=F
 Variable       Old X    -DE/DX   Delta X   Delta X   Delta X     New X
                                 (Linear)    (Quad)   (Total)
    R1        2.78779   0.00864   0.00000   0.02052   0.02052   2.80831
    R2        2.08419  -0.00255   0.00000  -0.00635  -0.00635   2.07785
    R3        2.08254  -0.00207   0.00000  -0.00513  -0.00513   2.07742
    R4        2.07673  -0.00365   0.00000  -0.00896  -0.00896   2.06777
    R5        2.53470  -0.00119   0.00000  -0.00250  -0.00235   2.53235
    R6        3.20373   0.04280   0.00000   0.10051   0.10018   3.30391
    R7        2.79686   0.01176   0.00000   0.02503   0.02546   2.82233
    R8        2.05598  -0.00272   0.00000  -0.00646  -0.00646   2.04951
    R9        2.54154  -0.00118   0.00000  -0.00260  -0.00241   2.53913
   R10        2.05917  -0.00341   0.00000  -0.00815  -0.00815   2.05102
   R11        2.74876   0.01277   0.00000   0.02846   0.02846   2.77722
   R12        3.21735   0.04391   0.00000   0.10524   0.10494   3.32229
   R13        2.83384  -0.00264   0.00000  -0.00672  -0.00672   2.82712
   R14        2.88919  -0.02482   0.00000  -0.06194  -0.06187   2.82732
   R15        2.88761  -0.03037   0.00000  -0.07715  -0.07709   2.81053
   R16        2.08182  -0.00224   0.00000  -0.00554  -0.00554   2.07628
   R17        2.08064  -0.00383   0.00000  -0.00946  -0.00946   2.07118
   R18        2.08307  -0.00509   0.00000  -0.01262  -0.01262   2.07045
   R19        2.36867  -0.02887   0.00000  -0.03764  -0.03778   2.33089
   R20        2.66790   0.06892   0.00000   0.05369   0.05369   2.72159
   R21        2.67089   0.06939   0.00000   0.05446   0.05446   2.72535
    A1        1.93632   0.00158   0.00000   0.00703   0.00705   1.94337
    A2        1.93858   0.00142   0.00000   0.00610   0.00611   1.94469
    A3        1.97403  -0.00688   0.00000  -0.03112  -0.03109   1.94294
    A4        1.87990  -0.00214   0.00000  -0.01151  -0.01152   1.86838
    A5        1.86448   0.00314   0.00000   0.01546   0.01550   1.87999
    A6        1.86585   0.00314   0.00000   0.01516   0.01518   1.88104
    A7        2.16325   0.02545   0.00000   0.08239   0.08247   2.24572
    A8        2.11811   0.00022   0.00000   0.00161   0.00170   2.11980
    A9        2.00183  -0.02567   0.00000  -0.08400  -0.08417   1.91766
   A10        1.92418   0.01803   0.00000   0.05453   0.05504   1.97922
   A11        2.22468  -0.01439   0.00000  -0.05220  -0.05246   2.17222
   A12        2.13431  -0.00364   0.00000  -0.00231  -0.00257   2.13174
   A13        1.92631   0.01793   0.00000   0.05403   0.05457   1.98088
   A14        2.13032  -0.00266   0.00000   0.00227   0.00199   2.13231
   A15        2.22654  -0.01527   0.00000  -0.05626  -0.05654   2.17000
   A16        2.15767   0.01991   0.00000   0.06489   0.06492   2.22259
   A17        1.99352  -0.02574   0.00000  -0.08444  -0.08458   1.90893
   A18        2.13180   0.00585   0.00000   0.01981   0.01983   2.15163
   A19        2.04250   0.01216   0.00000   0.04340   0.04346   2.08596
   A20        2.05099  -0.00297   0.00000  -0.01215  -0.01210   2.03888
   A21        2.05650  -0.00821   0.00000  -0.02847  -0.02854   2.02796
   A22        2.08011  -0.00735   0.00000  -0.02978  -0.02979   2.05031
   A23        2.08159  -0.00184   0.00000  -0.01003  -0.01004   2.07155
   A24        1.94127   0.00089   0.00000   0.00361   0.00362   1.94488
   A25        1.97389  -0.00593   0.00000  -0.02696  -0.02703   1.94687
   A26        1.94592  -0.00243   0.00000  -0.01134  -0.01141   1.93451
   A27        1.86166   0.00273   0.00000   0.01275   0.01275   1.87441
   A28        1.87826   0.00054   0.00000   0.00146   0.00146   1.87972
   A29        1.85723   0.00481   0.00000   0.02325   0.02312   1.88035
   A30        1.57888   0.01546   0.00000   0.05996   0.05920   1.63808
   A31        1.93543  -0.00488   0.00000  -0.01721  -0.01682   1.91861
   A32        1.93953  -0.00569   0.00000  -0.02325  -0.02386   1.91567
   A33        1.94959  -0.00513   0.00000  -0.01837  -0.01811   1.93148
   A34        1.92510  -0.00102   0.00000   0.00639   0.00704   1.93215
   A35        2.07356   0.00364   0.00000   0.00461   0.00408   2.07765
    D1        2.09547   0.00046   0.00000   0.00297   0.00292   2.09839
    D2       -1.04699   0.00031   0.00000   0.00340   0.00342  -1.04357
    D3       -2.09731  -0.00025   0.00000  -0.00284  -0.00286  -2.10017
    D4        1.04341  -0.00040   0.00000  -0.00241  -0.00236   1.04106
    D5        0.00077   0.00003   0.00000  -0.00052  -0.00055   0.00022
    D6        3.14149  -0.00012   0.00000  -0.00009  -0.00004   3.14145
    D7       -3.13320  -0.00102   0.00000  -0.00621  -0.00607  -3.13927
    D8        0.00387  -0.00032   0.00000  -0.00136  -0.00132   0.00254
    D9        0.00921  -0.00089   0.00000  -0.00664  -0.00655   0.00265
   D10       -3.13691  -0.00019   0.00000  -0.00180  -0.00181  -3.13872
   D11        3.13202   0.00096   0.00000   0.00659   0.00665   3.13868
   D12       -1.17003   0.00104   0.00000   0.00883   0.00857  -1.16146
   D13        1.17675  -0.00349   0.00000  -0.02169  -0.02117   1.15558
   D14       -0.01036   0.00085   0.00000   0.00706   0.00714  -0.00322
   D15        1.97077   0.00093   0.00000   0.00930   0.00906   1.97983
   D16       -1.96564  -0.00361   0.00000  -0.02122  -0.02068  -1.98631
   D17       -0.00254   0.00039   0.00000   0.00210   0.00206  -0.00048
   D18        3.13226   0.00057   0.00000   0.00721   0.00742   3.13967
   D19       -3.13989  -0.00023   0.00000  -0.00229  -0.00240   3.14090
   D20       -0.00509  -0.00005   0.00000   0.00282   0.00296  -0.00214
   D21        3.11511   0.00088   0.00000   0.01636   0.01647   3.13158
   D22       -0.00511   0.00017   0.00000   0.00295   0.00319  -0.00193
   D23       -0.01921   0.00061   0.00000   0.01058   0.01068  -0.00854
   D24       -3.13944  -0.00010   0.00000  -0.00284  -0.00260   3.14114
   D25       -2.43999  -0.00195   0.00000  -0.02761  -0.02782  -2.46780
   D26        1.19054  -0.00366   0.00000  -0.02216  -0.02242   1.16812
   D27        0.22784   0.00212   0.00000  -0.01970  -0.02013   0.20771
   D28        0.67859  -0.00153   0.00000  -0.01432  -0.01393   0.66467
   D29       -1.97407  -0.00325   0.00000  -0.00887  -0.00853  -1.98260
   D30       -2.93676   0.00253   0.00000  -0.00641  -0.00624  -2.94300
   D31        0.00871  -0.00054   0.00000  -0.00552  -0.00577   0.00293
   D32       -1.95951  -0.00105   0.00000  -0.00961  -0.00955  -1.96907
   D33        1.97721  -0.00058   0.00000  -0.00529  -0.00534   1.97187
   D34       -3.11188  -0.00144   0.00000  -0.01935  -0.01910  -3.13097
   D35        1.20309  -0.00195   0.00000  -0.02344  -0.02288   1.18021
   D36       -1.14337  -0.00148   0.00000  -0.01913  -0.01867  -1.16204
   D37       -1.35647   0.00018   0.00000   0.00800   0.00807  -1.34840
   D38        2.83222   0.00015   0.00000   0.00769   0.00780   2.84002
   D39        0.74009  -0.00017   0.00000   0.00462   0.00466   0.74475
   D40        1.28775   0.00332   0.00000   0.00804   0.00795   1.29570
   D41       -0.80675   0.00329   0.00000   0.00773   0.00768  -0.79907
   D42       -2.89888   0.00297   0.00000   0.00466   0.00454  -2.89434
   D43        2.26595  -0.00223   0.00000   0.00486   0.00488   2.27083
   D44        0.17145  -0.00226   0.00000   0.00455   0.00461   0.17606
   D45       -1.92068  -0.00258   0.00000   0.00148   0.00147  -1.91921
         Item               Value     Threshold  Converged?
 Maximum Force            0.069391     0.000450     NO 
 RMS     Force            0.014273     0.000300     NO 
 Maximum Displacement     0.239625     0.001800     NO 
 RMS     Displacement     0.068072     0.001200     NO 
 Predicted change in Energy=-2.190781D-02
 Lowest energy point so far.  Saving SCF results.
 GradGradGradGradGradGradGradGradGradGradGradGradGradGradGradGradGradGrad

 Leave Link  103 at Thu Aug  2 15:40:28 2018, MaxMem=  1073741824 cpu:               2.0 elap:               0.2
 (Enter /shared/apps/gaussian/gaussian-16/g16/l202.exe)
                          Input orientation:                          
 ---------------------------------------------------------------------
 Center     Atomic      Atomic             Coordinates (Angstroms)
 Number     Number       Type             X           Y           Z
 ---------------------------------------------------------------------
      1          6           0       -3.434849    0.298980    0.026288
      2          6           0       -1.982524    0.597792   -0.073360
      3          6           0       -1.383720    1.773425   -0.308057
      4          6           0        0.106746    1.683880   -0.340672
      5          6           0        0.573569    0.441963   -0.128276
      6          6           0        1.977795    0.008907   -0.106954
      7          6           0        2.351031   -1.311537   -0.703010
      8          7           0        2.826859    0.526289    1.011027
      9          7           0        2.997933    1.090612   -0.072341
     10         16           0       -0.777988   -0.654506    0.120522
     11          8           0       -0.792567   -1.144184    1.474844
     12          8           0       -0.876026   -1.597732   -0.966046
     13          1           0       -3.744598   -0.437904   -0.728738
     14          1           0       -3.692113   -0.119552    1.009727
     15          1           0       -4.037531    1.200274   -0.121212
     16          1           0       -1.908982    2.709755   -0.461837
     17          1           0        0.733971    2.550954   -0.521664
     18          1           0        2.086109   -2.142784   -0.035154
     19          1           0        3.428082   -1.376295   -0.895450
     20          1           0        1.831804   -1.470338   -1.654639
 ---------------------------------------------------------------------
                    Distance matrix (angstroms):
                    1          2          3          4          5
     1  C    0.000000
     2  C    1.486091   0.000000
     3  C    2.548118   1.340060   0.000000
     4  C    3.820407   2.369830   1.493510   0.000000
     5  C    4.013944   2.561427   2.374045   1.343649   0.000000
     6  C    5.422049   4.004003   3.801809   2.522099   1.469641
     7  C    6.049962   4.777205   4.860179   3.760402   2.562119
     8  N    6.342742   4.930636   4.585227   3.250557   2.526349
     9  N    6.482059   5.004779   4.440797   2.963600   2.510262
    10  S    2.824345   1.748355   2.538787   2.542342   1.758081
    11  O    3.341062   2.616756   3.469962   3.478910   2.636700
    12  O    3.336138   2.615636   3.472089   3.482229   2.638853
    13  H    1.099548   2.146414   3.262008   4.414229   4.447616
    14  H    1.099321   2.147174   3.263218   4.416705   4.450437
    15  H    1.094217   2.142038   2.721420   4.178166   4.673042
    16  H    2.894541   2.148653   1.084556   2.265008   3.378935
    17  H    4.769770   3.375672   2.266009   1.085350   2.151354
    18  H    6.037133   4.905711   5.239360   4.319095   2.996226
    19  H    7.124323   5.817861   5.780935   4.550134   3.470283
    20  H    5.804622   4.618084   4.761814   3.827718   2.751333
                    6          7          8          9         10
     6  C    0.000000
     7  C    1.496048   0.000000
     8  N    1.496154   2.557722   0.000000
     9  N    1.487267   2.566426   1.233455   0.000000
    10  S    2.843625   3.301614   3.896435   4.164157   0.000000
    11  O    3.392140   3.827958   4.013210   4.664331   1.440204
    12  O    3.385798   3.250384   4.704429   4.799319   1.442192
    13  H    5.773391   6.157969   6.865894   6.944706   3.093369
    14  H    5.780254   6.393268   6.550886   6.884190   3.093378
    15  H    6.132186   6.889223   6.989712   7.036488   3.758093
    16  H    4.746321   5.863162   5.418952   5.181809   3.596740
    17  H    2.860259   4.191253   3.290682   2.731302   3.601860
    18  H    2.155612   1.098721   2.960939   3.359710   3.231449
    19  H    2.154958   1.096023   2.759701   2.635937   4.386822
    20  H    2.145881   1.095633   3.475979   3.228310   3.260029
                   11         12         13         14         15
    11  O    0.000000
    12  O    2.484073   0.000000
    13  H    3.750879   3.103260   0.000000
    14  H    3.110236   3.744201   1.768152   0.000000
    15  H    4.309718   4.305542   1.771588   1.772082   0.000000
    16  H    4.455330   4.458214   3.653557   3.653770   2.631592
    17  H    4.468826   4.472267   5.388297   5.391381   4.975132
    18  H    3.400599   3.152442   6.114313   6.210725   6.977278
    19  H    4.846241   4.310379   7.235725   7.477050   7.935586
    20  H    4.097239   2.796915   5.746257   6.279898   6.628171
                   16         17         18         19         20
    16  H    0.000000
    17  H    2.648396   0.000000
    18  H    6.299997   4.908783   0.000000
    19  H    6.735583   4.777157   1.768758   0.000000
    20  H    5.734931   4.319682   1.771888   1.770117   0.000000
 Stoichiometry    C7H8N2O2S
 Framework group  C1[X(C7H8N2O2S)]
 Deg. of freedom    54
 Full point group                 C1      NOp   1
 RotChk:  IX=0 Diff= 2.26D-02
 Largest Abelian subgroup         C1      NOp   1
 Largest concise Abelian subgroup C1      NOp   1
                         Standard orientation:                         
 ---------------------------------------------------------------------
 Center     Atomic      Atomic             Coordinates (Angstroms)
 Number     Number       Type             X           Y           Z
 ---------------------------------------------------------------------
      1          6           0       -3.425726    0.265762    0.024524
      2          6           0       -1.975408    0.574946   -0.072699
      3          6           0       -1.384710    1.754290   -0.309309
      4          6           0        0.106442    1.675594   -0.338340
[...]
    13  H    3.710870   3.051845   0.000000
    14  H    3.053316   3.713967   1.767278   0.000000
    15  H    4.313411   4.312342   1.781762   1.781774   0.000000
    16  H    4.487205   4.487161   3.705796   3.703738   2.730201
    17  H    4.496499   4.496544   5.379147   5.378073   5.020765
    18  H    2.807936   3.517282   6.055781   5.792779   6.778351
    19  H    4.417226   4.417208   7.227946   7.229502   7.951631
    20  H    3.515770   2.807491   5.790610   6.057056   6.777249
                   16         17         18         19         20
    16  H    0.000000
    17  H    2.610912   0.000000
    18  H    6.100152   4.784545   0.000000
    19  H    6.839787   4.976609   1.776145   0.000000
    20  H    6.099899   4.784698   1.774754   1.776118   0.000000
 Stoichiometry    C7H8N2O2S
 Framework group  C1[X(C7H8N2O2S)]
 Deg. of freedom    54
 Full point group                 C1      NOp   1
 RotChk:  IX=2 Diff= 6.20D-16
 Largest Abelian subgroup         C1      NOp   1
 Largest concise Abelian subgroup C1      NOp   1
                         Standard orientation:                         
 ---------------------------------------------------------------------
 Center     Atomic      Atomic             Coordinates (Angstroms)
 Number     Number       Type             X           Y           Z
 ---------------------------------------------------------------------
      1          6           0       -3.422311    0.293774    0.000209
      2          6           0       -1.988904    0.654492   -0.000062
      3          6           0       -1.329419    1.817685    0.000015
      4          6           0        0.137105    1.709851    0.000038
      5          6           0        0.617993    0.455547   -0.000015
      6          6           0        1.995765   -0.029137    0.000003
      7          6           0        2.296796   -1.494617    0.000250
      8          7           0        2.966525    0.898073    0.613309
      9          7           0        2.966543    0.897975   -0.613423
     10         16           0       -0.781954   -0.674828   -0.000105
     11          8           0       -0.847107   -1.409605    1.262774
     12          8           0       -0.847145   -1.409484   -1.263042
     13          1           0       -3.668705   -0.310583   -0.882289
     14          1           0       -3.669227   -0.307038    0.884986
     15          1           0       -4.047253    1.191446   -0.001785
     16          1           0       -1.828822    2.782847    0.000005
     17          1           0        0.774924    2.589545    0.000114
     18          1           0        1.876399   -1.981048    0.887980
     19          1           0        3.378784   -1.651510   -0.000240
     20          1           0        1.875557   -1.981601   -0.886774
 ---------------------------------------------------------------------
 Rotational constants (GHZ):           1.6750454           0.6777635           0.5505644
 Leave Link  202 at Thu Aug  2 16:01:55 2018, MaxMem=  1073741824 cpu:               0.1 elap:               0.0
 (Enter /shared/apps/gaussian/gaussian-16/g16/l601.exe)
 Copying SCF densities to generalized density rwf, IOpCl= 0 IROHF=0.

 **********************************************************************

            Population analysis using the SCF density.

 **********************************************************************

 Orbital symmetries:
       Occupied  (A) (A) (A) (A) (A) (A) (A) (A) (A) (A) (A) (A)
                 (A) (A) (A) (A) (A) (A) (A) (A) (A) (A) (A) (A)
                 (A) (A) (A) (A) (A) (A) (A) (A) (A) (A) (A) (A)
                 (A) (A) (A) (A) (A) (A) (A) (A) (A) (A) (A) (A)
       Virtual   (A) (A) (A) (A) (A) (A) (A) (A) (A) (A) (A) (A)
                 (A) (A) (A) (A) (A) (A) (A) (A) (A) (A) (A) (A)
                 (A) (A) (A) (A) (A) (A) (A) (A) (A) (A) (A) (A)
                 (A) (A) (A) (A) (A) (A) (A) (A) (A) (A) (A) (A)
                 (A) (A) (A) (A) (A) (A) (A) (A) (A) (A) (A) (A)
                 (A) (A) (A) (A) (A) (A) (A) (A) (A) (A) (A) (A)
                 (A) (A) (A) (A) (A) (A) (A) (A) (A) (A) (A) (A)
                 (A) (A) (A) (A) (A) (A) (A) (A) (A) (A) (A) (A)
                 (A) (A) (A) (A) (A) (A) (A) (A) (A) (A) (A) (A)
                 (A) (A) (A) (A) (A) (A) (A) (A) (A) (A) (A) (A)
                 (A) (A) (A) (A) (A) (A) (A) (A) (A) (A) (A) (A)
                 (A) (A) (A) (A) (A) (A) (A) (A) (A) (A) (A) (A)
                 (A) (A) (A) (A) (A) (A) (A) (A) (A) (A) (A) (A)
                 (A) (A) (A) (A) (A) (A) (A) (A) (A) (A) (A) (A)
                 (A) (A) (A) (A) (A) (A) (A) (A) (A) (A) (A) (A)
                 (A) (A) (A) (A) (A) (A) (A) (A) (A) (A) (A) (A)
                 (A) (A) (A) (A) (A) (A) (A) (A) (A) (A) (A) (A)
                 (A) (A) (A) (A) (A) (A) (A) (A) (A) (A) (A) (A)
                 (A) (A) (A) (A) (A) (A) (A) (A)
 The electronic state is 1-A.
 Alpha  occ. eigenvalues --  -89.29083 -19.25430 -19.25430 -14.52679 -14.52613
 Alpha  occ. eigenvalues --  -10.36369 -10.32357 -10.32254 -10.31650 -10.31304
 Alpha  occ. eigenvalues --  -10.28999 -10.27335  -8.26174  -6.17900  -6.17845
 Alpha  occ. eigenvalues --   -6.17800  -1.18246  -1.15155  -1.04850  -0.91507
 Alpha  occ. eigenvalues --   -0.83544  -0.79229  -0.74425  -0.72619  -0.66539
 Alpha  occ. eigenvalues --   -0.65450  -0.61170  -0.58505  -0.56241  -0.51383
 Alpha  occ. eigenvalues --   -0.50362  -0.49297  -0.48323  -0.47659  -0.45716
 Alpha  occ. eigenvalues --   -0.45171  -0.44333  -0.43369  -0.42607  -0.41276
 Alpha  occ. eigenvalues --   -0.39478  -0.39248  -0.36244  -0.35960  -0.33415
 Alpha  occ. eigenvalues --   -0.32129  -0.31990  -0.25953
 Alpha virt. eigenvalues --   -0.09330  -0.07905  -0.03299  -0.02001  -0.01512
 Alpha virt. eigenvalues --   -0.00354  -0.00039   0.00448   0.00995   0.01044
 Alpha virt. eigenvalues --    0.02132   0.02326   0.02816   0.03624   0.04344
 Alpha virt. eigenvalues --    0.05178   0.05218   0.05388   0.05964   0.06637
 Alpha virt. eigenvalues --    0.07713   0.08252   0.09301   0.09650   0.10649
 Alpha virt. eigenvalues --    0.11016   0.11118   0.12035   0.12179   0.13073
 Alpha virt. eigenvalues --    0.13179   0.14286   0.14570   0.14619   0.16177
 Alpha virt. eigenvalues --    0.16742   0.16754   0.17272   0.17930   0.18685
 Alpha virt. eigenvalues --    0.19166   0.19362   0.19568   0.19909   0.20443
 Alpha virt. eigenvalues --    0.21183   0.22330   0.22517   0.22704   0.23214
 Alpha virt. eigenvalues --    0.24724   0.25151   0.25517   0.25915   0.27302
 Alpha virt. eigenvalues --    0.28140   0.28424   0.29833   0.30263   0.31148
 Alpha virt. eigenvalues --    0.31607   0.31734   0.33317   0.35290   0.35804
 Alpha virt. eigenvalues --    0.36258   0.37072   0.39045   0.40322   0.41525
 Alpha virt. eigenvalues --    0.42777   0.48955   0.51846   0.54948   0.59917
 Alpha virt. eigenvalues --    0.60042   0.60877   0.63411   0.64278   0.64528
 Alpha virt. eigenvalues --    0.66243   0.66573   0.68922   0.69178   0.71867
 Alpha virt. eigenvalues --    0.73255   0.74049   0.74669   0.76295   0.77646
 Alpha virt. eigenvalues --    0.79370   0.81449   0.82485   0.83913   0.84804
 Alpha virt. eigenvalues --    0.86764   0.89302   0.90136   0.92256   0.93027
 Alpha virt. eigenvalues --    0.93289   0.94577   0.95373   0.96816   0.97855
 Alpha virt. eigenvalues --    0.97940   1.01418   1.02139   1.05037   1.06393
 Alpha virt. eigenvalues --    1.07752   1.09866   1.09912   1.10548   1.12891
 Alpha virt. eigenvalues --    1.14684   1.18309   1.19337   1.22424   1.25534
 Alpha virt. eigenvalues --    1.26995   1.27470   1.27661   1.28249   1.31783
 Alpha virt. eigenvalues --    1.34705   1.36832   1.36927   1.38595   1.42581
 Alpha virt. eigenvalues --    1.44703   1.44961   1.47514   1.50050   1.53262
 Alpha virt. eigenvalues --    1.53386   1.56021   1.57253   1.65120   1.67798
 Alpha virt. eigenvalues --    1.69322   1.73982   1.75186   1.76755   1.77227
 Alpha virt. eigenvalues --    1.80206   1.80480   1.82502   1.83073   1.83205
 Alpha virt. eigenvalues --    1.85811   1.86906   1.90331   1.92401   1.94846
 Alpha virt. eigenvalues --    1.95058   1.97895   1.99944   2.00060   2.01811
 Alpha virt. eigenvalues --    2.02889   2.03961   2.06071   2.07486   2.09599
 Alpha virt. eigenvalues --    2.10901   2.11545   2.15672   2.16468   2.17453
 Alpha virt. eigenvalues --    2.20357   2.21035   2.27428   2.28981   2.32121
 Alpha virt. eigenvalues --    2.33723   2.35599   2.36495   2.41714   2.41827
 Alpha virt. eigenvalues --    2.44958   2.47722   2.48676   2.51464   2.53546
 Alpha virt. eigenvalues --    2.54261   2.57627   2.60880   2.63361   2.68318
 Alpha virt. eigenvalues --    2.71863   2.72753   2.75865   2.77674   2.81181
 Alpha virt. eigenvalues --    2.84424   2.86368   2.90356   2.90938   2.91401
 Alpha virt. eigenvalues --    2.97254   2.97420   3.04578   3.15312   3.22759
 Alpha virt. eigenvalues --    3.25959   3.27699   3.36841   3.39733   3.40559
 Alpha virt. eigenvalues --    3.43261   3.55465   3.93777   3.95863   4.12520
 Alpha virt. eigenvalues --    4.17696   4.22816   4.27494   4.31707   4.39974
 Alpha virt. eigenvalues --    4.43235   4.54402   4.59701   4.67244
          Condensed to atoms (all electrons):
               1          2          3          4          5          6
     1  C    8.209202  -1.217436  -1.777105   0.754049  -0.047840  -1.026174
     2  C   -1.217436   9.273029  -1.979420   2.143409   0.510748  -1.950548
     3  C   -1.777105  -1.979420  11.816490  -4.822047  -0.123363   3.180369
     4  C    0.754049   2.143409  -4.822047  16.216889 -10.174866   1.208069
     5  C   -0.047840   0.510748  -0.123363 -10.174866  35.526860 -16.478856
     6  C   -1.026174  -1.950548   3.180369   1.208069 -16.478856  20.787196
     7  C   -0.021622  -0.092128  -0.062330   0.940978  -3.457795   0.923014
     8  N   -0.005610  -0.042592   0.098027   0.051024  -0.289048   0.496442
     9  N   -0.005606  -0.042466   0.097864   0.051593  -0.289458   0.496067
    10  S    0.223270  -0.119026  -0.227552  -1.142180   1.326838  -0.997537
    11  O   -0.089962  -0.061779  -0.009267   0.116447   0.023694  -0.161317
    12  O   -0.090241  -0.061512  -0.010121   0.116836   0.022970  -0.160683
    13  H    0.447351  -0.074800  -0.042815   0.004358  -0.007867  -0.002518
    14  H    0.447662  -0.075188  -0.042465   0.004272  -0.007826  -0.002498
    15  H    0.501721  -0.192962   0.036005   0.011616  -0.008635  -0.000329
    16  H   -0.012840   0.149191   0.088035   0.110815  -0.045813   0.002792
    17  H    0.000509  -0.050531   0.055483   0.012554   0.304368  -0.053014
    18  H    0.000050   0.002576   0.001656  -0.021981   0.062387  -0.037435
    19  H    0.000261   0.001483  -0.001010   0.001324   0.053906  -0.157274
    20  H    0.000045   0.002565   0.001679  -0.022085   0.062515  -0.037375
               7          8          9         10         11         12
     1  C   -0.021622  -0.005610  -0.005606   0.223270  -0.089962  -0.090241
     2  C   -0.092128  -0.042592  -0.042466  -0.119026  -0.061779  -0.061512
     3  C   -0.062330   0.098027   0.097864  -0.227552  -0.009267  -0.010121
     4  C    0.940978   0.051024   0.051593  -1.142180   0.116447   0.116836
     5  C   -3.457795  -0.289048  -0.289458   1.326838   0.023694   0.022970
     6  C    0.923014   0.496442   0.496067  -0.997537  -0.161317  -0.160683
     7  C    7.476313  -0.195562  -0.195212  -0.246041  -0.016225  -0.016426
     8  N   -0.195562   6.446212   0.380363   0.002424  -0.002388   0.001741
     9  N   -0.195212   0.380363   6.446129   0.002382   0.001740  -0.002392
    10  S   -0.246041   0.002424   0.002382  15.673739   0.287357   0.288164
    11  O   -0.016225  -0.002388   0.001740   0.287357   8.656597  -0.240808
    12  O   -0.016426   0.001741  -0.002392   0.288164  -0.240808   8.656572
    13  H    0.000213  -0.000008   0.000012   0.021840  -0.001867   0.006492
    14  H    0.000209   0.000012  -0.000009   0.021610   0.006451  -0.001855
    15  H   -0.000024  -0.000003  -0.000003   0.007683  -0.000227  -0.000225
    16  H    0.000397   0.000059   0.000059   0.019223  -0.000633  -0.000633
    17  H    0.010085   0.001161   0.001168   0.028111  -0.000428  -0.000429
    18  H    0.331632  -0.009421   0.010213   0.016010  -0.003212  -0.000687
    19  H    0.460948   0.000499   0.000482  -0.001557   0.000211   0.000211
    20  H    0.331479   0.010208  -0.009412   0.016058  -0.000697  -0.003196
              13         14         15         16         17         18
     1  C    0.447351   0.447662   0.501721  -0.012840   0.000509   0.000050
     2  C   -0.074800  -0.075188  -0.192962   0.149191  -0.050531   0.002576
     3  C   -0.042815  -0.042465   0.036005   0.088035   0.055483   0.001656
     4  C    0.004358   0.004272   0.011616   0.110815   0.012554  -0.021981
     5  C   -0.007867  -0.007826  -0.008635  -0.045813   0.304368   0.062387
     6  C   -0.002518  -0.002498  -0.000329   0.002792  -0.053014  -0.037435
     7  C    0.000213   0.000209  -0.000024   0.000397   0.010085   0.331632
     8  N   -0.000008   0.000012  -0.000003   0.000059   0.001161  -0.009421
     9  N    0.000012  -0.000009  -0.000003   0.000059   0.001168   0.010213
    10  S    0.021840   0.021610   0.007683   0.019223   0.028111   0.016010
    11  O   -0.001867   0.006451  -0.000227  -0.000633  -0.000428  -0.003212
    12  O    0.006492  -0.001855  -0.000225  -0.000633  -0.000429  -0.000687
    13  H    0.495197  -0.025671  -0.022061   0.000048   0.000002  -0.000000
    14  H   -0.025671   0.495138  -0.022061   0.000048   0.000002   0.000000
    15  H   -0.022061  -0.022061   0.510009   0.001297  -0.000000   0.000000
    16  H    0.000048   0.000048   0.001297   0.520733  -0.003173   0.000000
    17  H    0.000002   0.000002  -0.000000  -0.003173   0.516190  -0.000002
    18  H   -0.000000   0.000000   0.000000   0.000000  -0.000002   0.489142
    19  H    0.000000   0.000000  -0.000000  -0.000000   0.000001  -0.021172
    20  H    0.000000  -0.000000   0.000000   0.000000  -0.000002  -0.024334
              19         20
     1  C    0.000261   0.000045
     2  C    0.001483   0.002565
     3  C   -0.001010   0.001679
     4  C    0.001324  -0.022085
     5  C    0.053906   0.062515
     6  C   -0.157274  -0.037375
     7  C    0.460948   0.331479
     8  N    0.000499   0.010208
     9  N    0.000482  -0.009412
    10  S   -0.001557   0.016058
    11  O    0.000211  -0.000697
    12  O    0.000211  -0.003196
    13  H    0.000000   0.000000
    14  H    0.000000  -0.000000
    15  H   -0.000000   0.000000
    16  H   -0.000000   0.000000
    17  H    0.000001  -0.000002
    18  H   -0.021172  -0.024334
    19  H    0.512758  -0.021167
    20  H   -0.021167   0.489169
 Mulliken charges:
               1
     1  C   -0.289686
     2  C   -0.122613
     3  C   -0.278112
     4  C    0.438926
     5  C   -0.962920
     6  C   -0.028389
     7  C   -0.171902
     8  N    0.056462
     9  N    0.056487
    10  S    0.799182
    11  O   -0.503686
    12  O   -0.503779
    13  H    0.202095
    14  H    0.202168
    15  H    0.178202
    16  H    0.170395
    17  H    0.177947
    18  H    0.204579
    19  H    0.170095
    20  H    0.204549
 Sum of Mulliken charges =  -0.00000
 Mulliken charges with hydrogens summed into heavy atoms:
               1
     1  C    0.292780
     2  C   -0.122613
     3  C   -0.107717
     4  C    0.616873
     5  C   -0.962920
     6  C   -0.028389
     7  C    0.407321
     8  N    0.056462
     9  N    0.056487
    10  S    0.799182
    11  O   -0.503686
    12  O   -0.503779
 Electronic spatial extent (au):  <R**2>=           2095.0350
 Charge=              0.0000 electrons
 Dipole moment (field-independent basis, Debye):
    X=             -1.4406    Y=              3.1147    Z=              0.0009  Tot=              3.4317
 Quadrupole moment (field-independent basis, Debye-Ang):
   XX=            -69.1391   YY=            -75.3308   ZZ=            -85.5880
   XY=            -10.0226   XZ=             -0.0010   YZ=             -0.0000
 Traceless Quadrupole moment (field-independent basis, Debye-Ang):
   XX=              7.5469   YY=              1.3552   ZZ=             -8.9021
   XY=            -10.0226   XZ=             -0.0010   YZ=             -0.0000
 Octapole moment (field-independent basis, Debye-Ang**2):
  XXX=            -47.5247  YYY=             13.9586  ZZZ=              0.0093  XYY=              0.5068
  XXY=            -13.9052  XXZ=              0.0044  XZZ=             -1.6988  YZZ=             -0.8353
  YYZ=             -0.0042  XYZ=             -0.0002
 Hexadecapole moment (field-independent basis, Debye-Ang**3):
 XXXX=          -1775.7516 YYYY=           -655.7307 ZZZZ=           -244.4697 XXXY=            -59.3859
 XXXZ=             -0.0104 YYYX=            -22.0292 YYYZ=              0.0029 ZZZX=             -0.0186
 ZZZY=             -0.0048 XXYY=           -415.2753 XXZZ=           -372.6393 YYZZ=           -172.9041
 XXYZ=             -0.0064 YYXZ=              0.0162 ZZXY=             -8.9130
 N-N= 8.345951206789D+02 E-N=-3.849280317871D+03  KE= 9.223335605914D+02
 No NMR shielding tensors so no spin-rotation constants.
 Leave Link  601 at Thu Aug  2 16:01:55 2018, MaxMem=  1073741824 cpu:               3.5 elap:               0.3
 (Enter /shared/apps/gaussian/gaussian-16/g16/l9999.exe)
 1\1\GINC-COMPUTE-0-244\FOpt\RM06\6-31+G(d,p)\C7H8N2O2S1\ROOT\02-Aug-20
 18\0\\#p M06/6-31+G(d,p) opt\\ADNOQZQZUQQVRY-UHFFFAOYSA-N_S0_vac\\0,1\
 C,-3.4299654375,0.2646114616,-0.0146592639\C,-2.0043543098,0.650886037
 6,-0.0712104128\C,-1.3649151259,1.8252056439,-0.0658088878\C,0.1015228
 876,1.7438081467,-0.1382953187\C,0.6025104487,0.4989384461,-0.20028489
 25\C,1.9865330623,0.0393307462,-0.2803901842\C,2.3113943254,-1.4198257
 154,-0.3402122648\N,2.9699830042,0.9647177411,0.3151966177\N,2.9115181
 483,1.0020193956,-0.9095735199\S,-0.7769901741,-0.6558974646,-0.169766
 3941\O,-0.769717949,-1.4298877758,1.0711585243\O,-0.8901757501,-1.3527
 621616,-1.450604381\H,-3.7081379864,-0.3168924804,-0.9030472619\H,-3.6
 24463221,-0.3672378528,0.8615305396\H,-4.0690314973,1.1505449055,0.040
 9122196\H,-1.8796224814,2.7807838369,-0.0120610985\H,0.7240052179,2.63
 44171167,-0.1407474963\H,1.9418882016,-1.9405752114,0.5506850512\H,3.3
 945726044,-1.5571497211,-0.3966192845\H,1.8564460321,-1.8870350949,-1.
 2212022913\\Version=EM64L-G16RevA.03\State=1-A\HF=-929.1969563\RMSD=6.
 970e-09\RMSF=8.255e-06\Dipole=-0.5862702,1.2144387,0.0654311\Quadrupol
 e=5.8275906,0.7341577,-6.5617482,-7.3413919,-0.8192461,0.5750509\PG=C0
 1 [X(C7H8N2O2S1)]\\@


 THE ENLIGHTENED ONE, BECAUSE HE SAW MANKIND DROWNING  
 IN THE GREAT SEA OF BIRTH, DEATH, AND SORROW, LONGED TO SAVE 
 THEM, FOR THIS HE WAS MOVED TO PITY.                         
 BECAUSE HE SAW MEN OF THE WORLD STRAYING IN FALSE PATHS, AND 
 NONE TO GUIDE THEM, FOR THIS HE WAS MOVED TO PITY.           
                     ..................                       
 BECAUSE HE SAW THE MEN OF THE WORLD PLOUGHING THEIR FIELDS,  
 SOWING THE SEED, TRAFFICKING, HUCKSTERING, BUYING, SELLING,  
 AND AT THE END WINNOWING NOTHING BUT BITTERNESS,             
 FOR THIS HE WAS MOVED TO PITY......                   
                   BUDAH'S PITY - UPSAKA SILA SUTRA           
 Job cpu time:       0 days  6 hours  6 minutes 51.0 seconds.
 Elapsed time:       0 days  0 hours 23 minutes 11.7 seconds.
 File lengths (MBytes):  RWF=    288 Int=      0 D2E=      0 Chk=     32 Scr=     32
 Normal termination of Gaussian 16 at Thu Aug  2 16:01:55 2018.
