 Entering Gaussian System, Link 0=g16
 Input=ADNOQZQZUQQVRY-UHFFFAOYSA-N_S0_solv.com
 Output=ADNOQZQZUQQVRY-UHFFFAOYSA-N_S0_solv.log
 Initial command:
 /shared/apps/gaussian/gaussian-16/g16/l1.exe "/gss_gpfs_scratch/abreha.b/diazirines1_231_4_2018-08-02/s0_dft-opt_solv/Gau-5133.inp" -scrdir="/gss_gpfs_scratch/abreha.b/diazirines1_231_4_2018-08-02/s0_dft-opt_solv/"
 Entering Link 1 = /shared/apps/gaussian/gaussian-16/g16/l1.exe PID=      5134.
  
 Copyright (c) 1988,1990,1992,1993,1995,1998,2003,2009,2016,
            Gaussian, Inc.  All Rights Reserved.
  
 This is part of the Gaussian(R) 16 program.  It is based on
 the Gaussian(R) 09 system (copyright 2009, Gaussian, Inc.),
 the Gaussian(R) 03 system (copyright 2003, Gaussian, Inc.),
 the Gaussian(R) 98 system (copyright 1998, Gaussian, Inc.),
 the Gaussian(R) 94 system (copyright 1995, Gaussian, Inc.),
 the Gaussian 92(TM) system (copyright 1992, Gaussian, Inc.),
 the Gaussian 90(TM) system (copyright 1990, Gaussian, Inc.),
 the Gaussian 88(TM) system (copyright 1988, Gaussian, Inc.),
 the Gaussian 86(TM) system (copyright 1986, Carnegie Mellon
 University), and the Gaussian 82(TM) system (copyright 1983,
 Carnegie Mellon University). Gaussian is a federally registered
 trademark of Gaussian, Inc.
  
 This software contains proprietary and confidential information,
 including trade secrets, belonging to Gaussian, Inc.
  
 This software is provided under written license and may be
 used, copied, transmitted, or stored only in accord with that
 written license.
  
 The following legend is applicable only to US Government
 contracts under FAR:
  
                    RESTRICTED RIGHTS LEGEND
  
 Use, reproduction and disclosure by the US Government is
 subject to restrictions as set forth in subparagraphs (a)
 and (c) of the Commercial Computer Software - Restricted
 Rights clause in FAR 52.227-19.
  
 Gaussian, Inc.
 340 Quinnipiac St., Bldg. 40, Wallingford CT 06492
  
  
 ---------------------------------------------------------------
 Warning -- This program may not be used in any manner that
 competes with the business of Gaussian, Inc. or will provide
 assistance to any competitor of Gaussian, Inc.  The licensee
 of this program is prohibited from giving any competitor of
 Gaussian, Inc. access to this program.  By using this program,
 the user acknowledges that Gaussian, Inc. is engaged in the
 business of creating and licensing software in the field of
 computational chemistry and represents and warrants to the
 licensee that it is not a competitor of Gaussian, Inc. and that
 it will not use this program in any manner prohibited above.
 ---------------------------------------------------------------
  

 Cite this work as:
 Gaussian 16, Revision A.03,
 M. J. Frisch, G. W. Trucks, H. B. Schlegel, G. E. Scuseria, 
 M. A. Robb, J. R. Cheeseman, G. Scalmani, V. Barone, 
 G. A. Petersson, H. Nakatsuji, X. Li, M. Caricato, A. V. Marenich, 
 J. Bloino, B. G. Janesko, R. Gomperts, B. Mennucci, H. P. Hratchian, 
 J. V. Ortiz, A. F. Izmaylov, J. L. Sonnenberg, D. Williams-Young, 
 F. Ding, F. Lipparini, F. Egidi, J. Goings, B. Peng, A. Petrone, 
 T. Henderson, D. Ranasinghe, V. G. Zakrzewski, J. Gao, N. Rega, 
 G. Zheng, W. Liang, M. Hada, M. Ehara, K. Toyota, R. Fukuda, 
 J. Hasegawa, M. Ishida, T. Nakajima, Y. Honda, O. Kitao, H. Nakai, 
 T. Vreven, K. Throssell, J. A. Montgomery, Jr., J. E. Peralta, 
 F. Ogliaro, M. J. Bearpark, J. J. Heyd, E. N. Brothers, K. N. Kudin, 
 V. N. Staroverov, T. A. Keith, R. Kobayashi, J. Normand, 
 K. Raghavachari, A. P. Rendell, J. C. Burant, S. S. Iyengar, 
 J. Tomasi, M. Cossi, J. M. Millam, M. Klene, C. Adamo, R. Cammi, 
 J. W. Ochterski, R. L. Martin, K. Morokuma, O. Farkas, 
 J. B. Foresman, and D. J. Fox, Gaussian, Inc., Wallingford CT, 2016.
 
 ******************************************
 Gaussian 16:  EM64L-G16RevA.03 25-Dec-2016
                 2-Aug-2018 
 ******************************************
 %rwf=ADNOQZQZUQQVRY-UHFFFAOYSA-N_S0_solv.rwf
 %NoSave
 %chk=ADNOQZQZUQQVRY-UHFFFAOYSA-N_S0_solv.chk
 %mem=8GB
 %nproc=16
 Will use up to   16 processors via shared memory.
 --------------------------------------------------
 #p M06/6-31+G(d,p) SCRF=(Solvent=Acetonitrile) opt
 --------------------------------------------------
 1/18=20,19=15,26=3,38=1/1,3;
 2/9=110,12=2,17=6,18=5,40=1/2;
 3/5=1,6=6,7=111,11=2,25=1,30=1,70=2201,71=1,72=2,74=-54/1,2,3;
 4//1;
 5/5=2,38=5,53=2/2;
 6/7=2,8=2,9=2,10=2,28=1/1;
 7//1,2,3,16;
 1/18=20,19=15,26=3/3(2);
 2/9=110/2;
 99//99;
 2/9=110/2;
 3/5=1,6=6,7=111,11=2,25=1,30=1,70=2205,71=1,72=2,74=-54/1,2,3;
 4/5=5,16=3,69=1/1;
 5/5=2,38=5,53=2/2;
 7//1,2,3,16;
 1/18=20,19=15,26=3/3(-5);
 2/9=110/2;
 6/7=2,8=2,9=2,10=2,19=2,28=1/1;
 99/9=1/99;
 Leave Link    1 at Thu Aug  2 19:48:50 2018, MaxMem=  1073741824 cpu:             169.9 elap:              11.3
 (Enter /shared/apps/gaussian/gaussian-16/g16/l101.exe)
 -----------------------------------
 ADNOQZQZUQQVRY-UHFFFAOYSA-N_S0_solv
 -----------------------------------
 Symbolic Z-matrix:
 Charge =  0 Multiplicity = 1
 C                    -3.422     0.294     0. 
 C                    -1.989     0.654     0. 
 C                    -1.329     1.818     0. 
 C                     0.137     1.71      0. 
 C                     0.618     0.456     0. 
 C                     1.996    -0.029     0. 
 C                     2.297    -1.495     0. 
 N                     2.967     0.898     0.613 
 N                     2.967     0.898    -0.613 
 S                    -0.782    -0.675     0. 
 O                    -0.847    -1.41      1.263 
 O                    -0.847    -1.409    -1.263 
 H                    -3.669    -0.311    -0.882 
 H                    -3.669    -0.307     0.885 
 H                    -4.047     1.191    -0.002 
 H                    -1.829     2.783     0. 
 H                     0.775     2.59      0. 
 H                     1.876    -1.981     0.888 
 H                     3.379    -1.652     0. 
 H                     1.876    -1.982    -0.887 
 
 ITRead=  0  0  0  0  0  0  0  0  0  0  0  0  0  0  0  0  0  0  0  0
 MicOpt= -1 -1 -1 -1 -1 -1 -1 -1 -1 -1 -1 -1 -1 -1 -1 -1 -1 -1 -1 -1
 NAtoms=     20 NQM=       20 NQMF=       0 NMMI=      0 NMMIF=      0
                NMic=       0 NMicF=      0.
                    Isotopes and Nuclear Properties:
 (Nuclear quadrupole moments (NQMom) in fm**2, nuclear magnetic moments (NMagM)
  in nuclear magnetons)

  Atom         1           2           3           4           5           6           7           8           9          10
 IAtWgt=          12          12          12          12          12          12          12          14          14          32
 AtmWgt=  12.0000000  12.0000000  12.0000000  12.0000000  12.0000000  12.0000000  12.0000000  14.0030740  14.0030740  31.9720718
 NucSpn=           0           0           0           0           0           0           0           2           2           0
 AtZEff=  -0.0000000  -0.0000000  -0.0000000  -0.0000000  -0.0000000  -0.0000000  -0.0000000  -0.0000000  -0.0000000  -0.0000000
 NQMom=    0.0000000   0.0000000   0.0000000   0.0000000   0.0000000   0.0000000   0.0000000   2.0440000   2.0440000   0.0000000
 NMagM=    0.0000000   0.0000000   0.0000000   0.0000000   0.0000000   0.0000000   0.0000000   0.4037610   0.4037610   0.0000000
 AtZNuc=   6.0000000   6.0000000   6.0000000   6.0000000   6.0000000   6.0000000   6.0000000   7.0000000   7.0000000  16.0000000

  Atom        11          12          13          14          15          16          17          18          19          20
 IAtWgt=          16          16           1           1           1           1           1           1           1           1
 AtmWgt=  15.9949146  15.9949146   1.0078250   1.0078250   1.0078250   1.0078250   1.0078250   1.0078250   1.0078250   1.0078250
 NucSpn=           0           0           1           1           1           1           1           1           1           1
 AtZEff=  -0.0000000  -0.0000000  -0.0000000  -0.0000000  -0.0000000  -0.0000000  -0.0000000  -0.0000000  -0.0000000  -0.0000000
 NQMom=    0.0000000   0.0000000   0.0000000   0.0000000   0.0000000   0.0000000   0.0000000   0.0000000   0.0000000   0.0000000
 NMagM=    0.0000000   0.0000000   2.7928460   2.7928460   2.7928460   2.7928460   2.7928460   2.7928460   2.7928460   2.7928460
 AtZNuc=   8.0000000   8.0000000   1.0000000   1.0000000   1.0000000   1.0000000   1.0000000   1.0000000   1.0000000   1.0000000
 Leave Link  101 at Thu Aug  2 19:48:51 2018, MaxMem=  1073741824 cpu:               7.3 elap:               0.5
 (Enter /shared/apps/gaussian/gaussian-16/g16/l103.exe)

 GradGradGradGradGradGradGradGradGradGradGradGradGradGradGradGradGradGrad
 Berny optimization.
 Initialization pass.
                           ----------------------------
                           !    Initial Parameters    !
                           ! (Angstroms and Degrees)  !
 --------------------------                            --------------------------
 ! Name  Definition              Value          Derivative Info.                !
 --------------------------------------------------------------------------------
 ! R1    R(1,2)                  1.4775         estimate D2E/DX2                !
 ! R2    R(1,13)                 1.0977         estimate D2E/DX2                !
 ! R3    R(1,14)                 1.0979         estimate D2E/DX2                !
 ! R4    R(1,15)                 1.0933         estimate D2E/DX2                !
 ! R5    R(2,3)                  1.3381         estimate D2E/DX2                !
 ! R6    R(2,10)                 1.7953         estimate D2E/DX2                !
 ! R7    R(3,4)                  1.47           estimate D2E/DX2                !
 ! R8    R(3,16)                 1.0868         estimate D2E/DX2                !
 ! R9    R(4,5)                  1.3431         estimate D2E/DX2                !
 ! R10   R(4,17)                 1.0869         estimate D2E/DX2                !
 ! R11   R(5,6)                  1.4609         estimate D2E/DX2                !
 ! R12   R(5,10)                 1.7998         estimate D2E/DX2                !
 ! R13   R(6,7)                  1.4966         estimate D2E/DX2                !
 ! R14   R(6,8)                  1.4758         estimate D2E/DX2                !
 ! R15   R(6,9)                  1.4758         estimate D2E/DX2                !
 ! R16   R(7,18)                 1.0963         estimate D2E/DX2                !
 ! R17   R(7,19)                 1.0933         estimate D2E/DX2                !
 ! R18   R(7,20)                 1.096          estimate D2E/DX2                !
 ! R19   R(8,9)                  1.226          estimate D2E/DX2                !
 ! R20   R(10,11)                1.4627         estimate D2E/DX2                !
 ! R21   R(10,12)                1.4622         estimate D2E/DX2                !
 ! A1    A(2,1,13)             110.6416         estimate D2E/DX2                !
 ! A2    A(2,1,14)             110.583          estimate D2E/DX2                !
 ! A3    A(2,1,15)             110.7654         estimate D2E/DX2                !
 ! A4    A(13,1,14)            107.1786         estimate D2E/DX2                !
 ! A5    A(13,1,15)            108.7899         estimate D2E/DX2                !
 ! A6    A(14,1,15)            108.7833         estimate D2E/DX2                !
 ! A7    A(1,2,3)              133.6558         estimate D2E/DX2                !
 ! A8    A(1,2,10)             118.1437         estimate D2E/DX2                !
 ! A9    A(3,2,10)             108.2005         estimate D2E/DX2                !
 ! A10   A(2,3,4)              115.3403         estimate D2E/DX2                !
 ! A11   A(2,3,16)             123.0561         estimate D2E/DX2                !
 ! A12   A(4,3,16)             121.6036         estimate D2E/DX2                !
 ! A13   A(3,4,5)              115.1988         estimate D2E/DX2                !
 ! A14   A(3,4,17)             121.7288         estimate D2E/DX2                !
 ! A15   A(5,4,17)             123.0724         estimate D2E/DX2                !
 ! A16   A(4,5,6)              130.3754         estimate D2E/DX2                !
 ! A17   A(4,5,10)             107.9478         estimate D2E/DX2                !
 ! A18   A(6,5,10)             121.6767         estimate D2E/DX2                !
 ! A19   A(5,6,7)              120.9928         estimate D2E/DX2                !
 ! A20   A(5,6,8)              114.3366         estimate D2E/DX2                !
 ! A21   A(5,6,9)              114.3366         estimate D2E/DX2                !
 ! A22   A(7,6,8)              118.8798         estimate D2E/DX2                !
 ! A23   A(7,6,9)              118.8798         estimate D2E/DX2                !
 ! A24   A(6,7,18)             110.916          estimate D2E/DX2                !
 ! A25   A(6,7,19)             109.8588         estimate D2E/DX2                !
 ! A26   A(6,7,20)             110.9781         estimate D2E/DX2                !
 ! A27   A(18,7,19)            108.4433         estimate D2E/DX2                !
 ! A28   A(18,7,20)            108.1216         estimate D2E/DX2                !
 ! A29   A(19,7,20)            108.4418         estimate D2E/DX2                !
 ! A30   A(2,10,5)              93.3125         estimate D2E/DX2                !
 ! A31   A(2,10,11)            110.0045         estimate D2E/DX2                !
 ! A32   A(2,10,12)            109.9808         estimate D2E/DX2                !
 ! A33   A(5,10,11)            110.5077         estimate D2E/DX2                !
 ! A34   A(5,10,12)            110.4887         estimate D2E/DX2                !
 ! A35   A(11,10,12)           119.4451         estimate D2E/DX2                !
 ! D1    D(13,1,2,3)           120.8387         estimate D2E/DX2                !
 ! D2    D(13,1,2,10)          -59.1613         estimate D2E/DX2                !
 ! D3    D(14,1,2,3)          -120.5673         estimate D2E/DX2                !
 ! D4    D(14,1,2,10)           59.4327         estimate D2E/DX2                !
 ! D5    D(15,1,2,3)             0.1121         estimate D2E/DX2                !
 ! D6    D(15,1,2,10)         -179.8879         estimate D2E/DX2                !
 ! D7    D(1,2,3,4)            180.0            estimate D2E/DX2                !
 ! D8    D(1,2,3,16)             0.0            estimate D2E/DX2                !
 ! D9    D(10,2,3,4)             0.0            estimate D2E/DX2                !
 ! D10   D(10,2,3,16)          180.0            estimate D2E/DX2                !
 ! D11   D(1,2,10,5)           180.0            estimate D2E/DX2                !
 ! D12   D(1,2,10,11)          -66.7638         estimate D2E/DX2                !
 ! D13   D(1,2,10,12)           66.7896         estimate D2E/DX2                !
 ! D14   D(3,2,10,5)             0.0            estimate D2E/DX2                !
 ! D15   D(3,2,10,11)          113.2362         estimate D2E/DX2                !
 ! D16   D(3,2,10,12)         -113.2104         estimate D2E/DX2                !
 ! D17   D(2,3,4,5)              0.0            estimate D2E/DX2                !
 ! D18   D(2,3,4,17)           180.0            estimate D2E/DX2                !
 ! D19   D(16,3,4,5)           180.0            estimate D2E/DX2                !
 ! D20   D(16,3,4,17)            0.0            estimate D2E/DX2                !
 ! D21   D(3,4,5,6)            180.0            estimate D2E/DX2                !
 ! D22   D(3,4,5,10)             0.0            estimate D2E/DX2                !
 ! D23   D(17,4,5,6)             0.0            estimate D2E/DX2                !
 ! D24   D(17,4,5,10)          180.0            estimate D2E/DX2                !
 ! D25   D(4,5,6,7)            180.0            estimate D2E/DX2                !
 ! D26   D(4,5,6,8)             27.1217         estimate D2E/DX2                !
 ! D27   D(4,5,6,9)            -27.1217         estimate D2E/DX2                !
 ! D28   D(10,5,6,7)             0.0            estimate D2E/DX2                !
 ! D29   D(10,5,6,8)          -152.8783         estimate D2E/DX2                !
 ! D30   D(10,5,6,9)           152.8783         estimate D2E/DX2                !
 ! D31   D(4,5,10,2)             0.0            estimate D2E/DX2                !
 ! D32   D(4,5,10,11)         -112.7991         estimate D2E/DX2                !
 ! D33   D(4,5,10,12)          112.7691         estimate D2E/DX2                !
 ! D34   D(6,5,10,2)           180.0            estimate D2E/DX2                !
 ! D35   D(6,5,10,11)           67.2009         estimate D2E/DX2                !
 ! D36   D(6,5,10,12)          -67.2309         estimate D2E/DX2                !
 ! D37   D(5,6,7,18)           -60.1232         estimate D2E/DX2                !
 ! D38   D(5,6,7,19)           180.0            estimate D2E/DX2                !
 ! D39   D(5,6,7,20)            60.0856         estimate D2E/DX2                !
 ! D40   D(8,6,7,18)            91.5586         estimate D2E/DX2                !
 ! D41   D(8,6,7,19)           -28.3182         estimate D2E/DX2                !
 ! D42   D(8,6,7,20)          -148.2326         estimate D2E/DX2                !
 ! D43   D(9,6,7,18)           148.1949         estimate D2E/DX2                !
 ! D44   D(9,6,7,19)            28.3182         estimate D2E/DX2                !
 ! D45   D(9,6,7,20)           -91.5963         estimate D2E/DX2                !
 --------------------------------------------------------------------------------
 Trust Radius=3.00D-01 FncErr=1.00D-07 GrdErr=1.00D-06 EigMax=2.50D+02 EigMin=1.00D-04
 Number of steps in this run=    111 maximum allowed number of steps=    120.
 GradGradGradGradGradGradGradGradGradGradGradGradGradGradGradGradGradGrad

 Leave Link  103 at Thu Aug  2 19:48:51 2018, MaxMem=  1073741824 cpu:               0.1 elap:               0.0
 (Enter /shared/apps/gaussian/gaussian-16/g16/l202.exe)
                          Input orientation:                          
 ---------------------------------------------------------------------
 Center     Atomic      Atomic             Coordinates (Angstroms)
 Number     Number       Type             X           Y           Z
 ---------------------------------------------------------------------
      1          6           0       -3.422000    0.294000    0.000000
      2          6           0       -1.989000    0.654000    0.000000
      3          6           0       -1.329000    1.818000    0.000000
      4          6           0        0.137000    1.710000    0.000000
      5          6           0        0.618000    0.456000    0.000000
      6          6           0        1.996000   -0.029000    0.000000
      7          6           0        2.297000   -1.495000    0.000000
      8          7           0        2.967000    0.898000    0.613000
      9          7           0        2.967000    0.898000   -0.613000
     10         16           0       -0.782000   -0.675000    0.000000
     11          8           0       -0.847000   -1.410000    1.263000
     12          8           0       -0.847000   -1.409000   -1.263000
     13          1           0       -3.669000   -0.311000   -0.882000
     14          1           0       -3.669000   -0.307000    0.885000
     15          1           0       -4.047000    1.191000   -0.002000
     16          1           0       -1.829000    2.783000    0.000000
     17          1           0        0.775000    2.590000    0.000000
     18          1           0        1.876000   -1.981000    0.888000
     19          1           0        3.379000   -1.652000    0.000000
     20          1           0        1.876000   -1.982000   -0.887000
 ---------------------------------------------------------------------
                    Distance matrix (angstroms):
                    1          2          3          4          5
     1  C    0.000000
     2  C    1.477528   0.000000
     3  C    2.589059   1.338094   0.000000
     4  C    3.830344   2.373818   1.469973   0.000000
     5  C    4.043247   2.614508   2.376100   1.343085   0.000000
     6  C    5.427619   4.043107   3.803555   2.545585   1.460859
     7  C    5.992285   4.794580   4.911603   3.864922   2.573993
     8  N    6.446697   4.999724   4.435965   3.007327   2.467577
     9  N    6.446697   4.999724   4.435965   3.007327   2.467577
    10  S    2.812216   1.795297   2.552304   2.555932   1.799767
    11  O    3.336077   2.675711   3.499640   3.506825   2.687629
    12  O    3.335566   2.674940   3.498717   3.505936   2.686935
    13  H    1.097706   2.128744   3.284230   4.398636   4.443488
    14  H    1.097923   2.128179   3.282446   4.397403   4.443395
    15  H    1.093269   2.126908   2.789383   4.216067   4.722547
    16  H    2.955126   2.135004   1.086842   2.239751   3.376794
    17  H    4.783976   3.374580   2.241160   1.086943   2.139768
    18  H    5.833779   4.761302   5.049056   4.175661   2.882720
    19  H    7.073932   5.842351   5.848604   4.670504   3.473728
    20  H    5.834017   4.761669   5.049633   4.176333   2.883258
                    6          7          8          9         10
     6  C    0.000000
     7  C    1.496582   0.000000
     8  N    1.475784   2.559515   0.000000
     9  N    1.475784   2.559515   1.226000   0.000000
    10  S    2.852122   3.186321   4.111581   4.111581   0.000000
    11  O    3.403671   3.389267   4.505104   4.836614   1.462744
    12  O    3.403266   3.389292   4.836137   4.504592   1.462241
    13  H    5.740181   6.145969   6.908922   6.750595   3.040590
    14  H    5.740447   6.147172   6.750000   6.908873   3.041943
    15  H    6.164921   6.889190   7.047004   7.046656   3.760610
    16  H    4.747417   5.943497   5.189471   5.189471   3.613028
    17  H    2.889637   4.359324   2.836106   2.836106   3.617247
    18  H    2.147847   1.096349   3.091043   3.425189   3.091787
    19  H    2.132327   1.093331   2.654809   2.654809   4.274161
    20  H    2.148343   1.095983   3.425592   3.091886   3.091922
                   11         12         13         14         15
    11  O    0.000000
    12  O    2.526000   0.000000
    13  H    3.711133   3.051958   0.000000
    14  H    3.053388   3.713757   1.767005   0.000000
    15  H    4.313401   4.311626   1.781373   1.781476   0.000000
    16  H    4.487844   4.486910   3.706260   3.703637   2.730200
    17  H    4.497338   4.496449   5.379857   5.378194   5.020845
    18  H    2.807382   3.516918   6.055479   5.792177   6.777582
    19  H    4.417331   4.417385   7.228451   7.229561   7.951612
    20  H    3.516307   2.807923   5.791312   6.057445   6.777395
                   16         17         18         19         20
    16  H    0.000000
    17  H    2.611142   0.000000
    18  H    6.100104   4.784850   0.000000
    19  H    6.840504   4.977487   1.776455   0.000000
    20  H    6.100739   4.785620   1.775000   1.776141   0.000000
 Stoichiometry    C7H8N2O2S
 Framework group  C1[X(C7H8N2O2S)]
 Deg. of freedom    54
 Full point group                 C1      NOp   1
 Largest Abelian subgroup         C1      NOp   1
 Largest concise Abelian subgroup C1      NOp   1
                         Standard orientation:                         
 ---------------------------------------------------------------------
 Center     Atomic      Atomic             Coordinates (Angstroms)
 Number     Number       Type             X           Y           Z
 ---------------------------------------------------------------------
      1          6           0       -3.422142    0.294057   -0.000021
      2          6           0       -1.989137    0.654038   -0.000021
      3          6           0       -1.329121    1.818029   -0.000021
      4          6           0        0.136877    1.710009   -0.000021
      5          6           0        0.617860    0.456002   -0.000021
      6          6           0        1.995854   -0.029017   -0.000021
      7          6           0        2.296834   -1.495021   -0.000021
      8          7           0        2.966866    0.897970    0.612979
      9          7           0        2.966866    0.897970   -0.613021
     10         16           0       -0.782155   -0.674979   -0.000021
     11          8           0       -0.847165   -1.409978    1.262979
     12          8           0       -0.847165   -1.408978   -1.263021
     13          1           0       -3.669150   -0.310940   -0.882021
     14          1           0       -3.669150   -0.306940    0.884979
     15          1           0       -4.047130    1.191066   -0.002021
     16          1           0       -1.829108    2.783035   -0.000021
     17          1           0        0.774889    2.590000   -0.000021
     18          1           0        1.875827   -1.981015    0.887979
     19          1           0        3.378832   -1.652036   -0.000021
     20          1           0        1.875827   -1.982015   -0.887021
 ---------------------------------------------------------------------
 Rotational constants (GHZ):           1.6748550           0.6777132           0.5505044
 Leave Link  202 at Thu Aug  2 19:48:51 2018, MaxMem=  1073741824 cpu:               0.1 elap:               0.0
 (Enter /shared/apps/gaussian/gaussian-16/g16/l301.exe)
 Standard basis: 6-31+G(d,p) (6D, 7F)
 Ernie: Thresh=  0.10000D-02 Tol=  0.10000D-05 Strict=F.
 There are   272 symmetry adapted cartesian basis functions of A   symmetry.
 There are   272 symmetry adapted basis functions of A   symmetry.
   272 basis functions,   464 primitive gaussians,   272 cartesian basis functions
    48 alpha electrons       48 beta electrons
       nuclear repulsion energy       834.5705117183 Hartrees.
 IExCor= 4235 DFT=T Ex+Corr=M06 ExCW=0 ScaHFX=  0.270000
 ScaDFX=  1.000000  1.000000  1.000000  1.000000 ScalE2=  1.000000  1.000000
 IRadAn=      5 IRanWt=     -1 IRanGd=            0 ICorTp=0 IEmpDi=  4
 NAtoms=   20 NActive=   20 NUniq=   20 SFac= 1.00D+00 NAtFMM=   60 NAOKFM=F Big=F
 Integral buffers will be    131072 words long.
 Raffenetti 2 integral format.
 Two-electron integral symmetry is turned on.
 ------------------------------------------------------------------------------
 Polarizable Continuum Model (PCM)
 =================================
 Model                : PCM.
 Atomic radii         : UFF (Universal Force Field).
 Polarization charges : Total charges.
 Charge compensation  : None.
 Solution method      : On-the-fly selection.
 Cavity type          : Scaled VdW (van der Waals Surface) (Alpha=1.100).
 Cavity algorithm     : GePol (No added spheres)
                        Default sphere list used, NSphG=   20.
                        Lebedev-Laikov grids with approx.  5.0 points / Ang**2.
                        Smoothing algorithm: York/Karplus (Gamma=1.0000).
                        Polarization charges: spherical gaussians, with
                                              point-specific exponents (IZeta= 3).
                        Self-potential: point-specific (ISelfS= 7).
                        Self-field    : sphere-specific E.n sum rule (ISelfD= 2).
 1st derivatives      : Analytical E(r).r(x)/FMM algorithm (CHGder, D1EAlg=3).
                        Cavity 1st derivative terms included.
 Solvent              : Acetonitrile, Eps=  35.688000 Eps(inf)=   1.806874
 ------------------------------------------------------------------------------
 Spheres list:
 ISph  on   Nord     Re0    Alpha      Xe            Ye            Ze
    1   C      1    1.9255  1.100     -3.422142      0.294057     -0.000021
    2   C      2    1.9255  1.100     -1.989137      0.654038     -0.000021
    3   C      3    1.9255  1.100     -1.329121      1.818029     -0.000021
    4   C      4    1.9255  1.100      0.136877      1.710009     -0.000021
    5   C      5    1.9255  1.100      0.617860      0.456002     -0.000021
    6   C      6    1.9255  1.100      1.995854     -0.029017     -0.000021
    7   C      7    1.9255  1.100      2.296834     -1.495021     -0.000021
    8   N      8    1.8300  1.100      2.966866      0.897970      0.612979
    9   N      9    1.8300  1.100      2.966866      0.897970     -0.613021
   10   S     10    2.0175  1.100     -0.782155     -0.674979     -0.000021
   11   O     11    1.7500  1.100     -0.847165     -1.409978      1.262979
   12   O     12    1.7500  1.100     -0.847165     -1.408978     -1.263021
   13   H     13    1.4430  1.100     -3.669150     -0.310940     -0.882021
   14   H     14    1.4430  1.100     -3.669150     -0.306940      0.884979
   15   H     15    1.4430  1.100     -4.047130      1.191066     -0.002021
   16   H     16    1.4430  1.100     -1.829108      2.783035     -0.000021
   17   H     17    1.4430  1.100      0.774889      2.590000     -0.000021
   18   H     18    1.4430  1.100      1.875827     -1.981015      0.887979
   19   H     19    1.4430  1.100      3.378832     -1.652036     -0.000021
   20   H     20    1.4430  1.100      1.875827     -1.982015     -0.887021
 ------------------------------------------------------------------------------
 GePol: Number of generator spheres                  =      20
 GePol: Total number of spheres                      =      20
 GePol: Number of exposed spheres                    =      20 (100.00%)
 GePol: Number of points                             =    1751
 GePol: Average weight of points                     =       0.13
 GePol: Minimum weight of points                     =   0.61D-08
 GePol: Maximum weight of points                     =    0.20577
 GePol: Number of points with low weight             =     104
 GePol: Fraction of low-weight points (<1% of avg)   =       5.94%
 GePol: Cavity surface area                          =    232.860 Ang**2
 GePol: Cavity volume                                =    239.582 Ang**3
 Leave Link  301 at Thu Aug  2 19:48:51 2018, MaxMem=  1073741824 cpu:               1.2 elap:               0.1
 (Enter /shared/apps/gaussian/gaussian-16/g16/l302.exe)
 NPDir=0 NMtPBC=     1 NCelOv=     1 NCel=       1 NClECP=     1 NCelD=      1
         NCelK=      1 NCelE2=     1 NClLst=     1 CellRange=     0.0.
 One-electron integrals computed using PRISM.
 One-electron integral symmetry used in STVInt
 NBasis=   272 RedAO= T EigKep=  2.04D-06  NBF=   272
 NBsUse=   272 1.00D-06 EigRej= -1.00D+00 NBFU=   272
 Precomputing XC quadrature grid using
 IXCGrd= 4 IRadAn=           5 IRanWt=          -1 IRanGd=           0 AccXCQ= 0.00D+00.
 Generated NRdTot=       0 NPtTot=           0 NUsed=           0 NTot=          32
 NSgBfM=   271   271   271   271   271 MxSgAt=    20 MxSgA2=    20.
 Leave Link  302 at Thu Aug  2 19:48:51 2018, MaxMem=  1073741824 cpu:               5.3 elap:               0.3
 (Enter /shared/apps/gaussian/gaussian-16/g16/l303.exe)
 DipDrv:  MaxL=1.
 Leave Link  303 at Thu Aug  2 19:48:51 2018, MaxMem=  1073741824 cpu:               0.4 elap:               0.0
 (Enter /shared/apps/gaussian/gaussian-16/g16/l401.exe)
 ExpMin= 4.05D-02 ExpMax= 2.19D+04 ExpMxC= 3.30D+03 IAcc=3 IRadAn=         5 AccDes= 0.00D+00
 Harris functional with IExCor= 1009 and IRadAn=       5 diagonalized for initial guess.
 HarFok:  IExCor= 1009 AccDes= 0.00D+00 IRadAn=         5 IDoV= 1 UseB2=F ITyADJ=14
 ICtDFT=  3500011 ScaDFX=  1.000000  1.000000  1.000000  1.000000
 FoFCou: FMM=F IPFlag=           0 FMFlag=      100000 FMFlg1=           0
         NFxFlg=           0 DoJE=T BraDBF=F KetDBF=T FulRan=T
         wScrn=  0.000000 ICntrl=       500 IOpCl=  0 I1Cent=   200000004 NGrid=           0
         NMat0=    1 NMatS0=      1 NMatT0=    0 NMatD0=    1 NMtDS0=    0 NMtDT0=    0
 Petite list used in FoFCou.
 Harris En= -928.930871820144    
 JPrj=0 DoOrth=F DoCkMO=F.
 Leave Link  401 at Thu Aug  2 19:48:53 2018, MaxMem=  1073741824 cpu:              23.0 elap:               1.5
 (Enter /shared/apps/gaussian/gaussian-16/g16/l502.exe)
 Integral symmetry usage will be decided dynamically.
 Closed shell SCF:
 Using DIIS extrapolation, IDIIS=  1040.
 NGot=  1073741824 LenX=  1073586723 LenY=  1073512298
 Requested convergence on RMS density matrix=1.00D-08 within 128 cycles.
 Requested convergence on MAX density matrix=1.00D-06.
 Requested convergence on             energy=1.00D-06.
 No special actions if energy rises.
 Fock matrices will be formed incrementally for  20 cycles.

 Cycle   1  Pass 1  IDiag  1:
 FoFJK:  IHMeth= 1 ICntrl=       0 DoSepK=F KAlg= 0 I1Cent=           0 FoldK=F
 IRaf= 910000000 NMat=       1 IRICut=       1 DoRegI=T DoRafI=F ISym2E= 0 IDoP0=0 IntGTp=1.
 FoFCou: FMM=F IPFlag=           0 FMFlag=      100000 FMFlg1=           0
         NFxFlg=           0 DoJE=F BraDBF=F KetDBF=F FulRan=T
         wScrn=  0.000000 ICntrl=         0 IOpCl=  0 I1Cent=           0 NGrid=           0
         NMat0=    1 NMatS0=      1 NMatT0=    0 NMatD0=    1 NMtDS0=    0 NMtDT0=    0
 Symmetry not used in FoFCou.
 Inv3:  Mode=1 IEnd=     9198003.
 Iteration    1 A*A^-1 deviation from unit magnitude is 6.11D-15 for     96.
 Iteration    1 A*A^-1 deviation from orthogonality  is 4.13D-15 for   1352    241.
 Iteration    1 A^-1*A deviation from unit magnitude is 6.22D-15 for    302.
 Iteration    1 A^-1*A deviation from orthogonality  is 4.08D-15 for   1340    259.
 E= -928.843910831367    
 DIIS: error= 2.79D-02 at cycle   1 NSaved=   1.
 NSaved= 1 IEnMin= 1 EnMin= -928.843910831367     IErMin= 1 ErrMin= 2.79D-02
 ErrMax= 2.79D-02  0.00D+00 EMaxC= 1.00D-01 BMatC= 4.20D-01 BMatP= 4.20D-01
 IDIUse=3 WtCom= 7.21D-01 WtEn= 2.79D-01
 Coeff-Com:  0.100D+01
 Coeff-En:   0.100D+01
 Coeff:      0.100D+01
 Gap=     0.195 Goal=   None    Shift=    0.000
 GapD=    0.195 DampG=1.000 DampE=0.500 DampFc=0.5000 IDamp=-1.
 Damping current iteration by 5.00D-01
 RMSDP=5.60D-02 MaxDP=6.65D+00              OVMax= 2.41D-01

 Cycle   2  Pass 1  IDiag  1:
 RMSU=  2.25D-02    CP:  1.22D+00
 E= -928.964518801874     Delta-E=       -0.120607970507 Rises=F Damp=T
 DIIS: error= 9.41D-03 at cycle   2 NSaved=   2.
 NSaved= 2 IEnMin= 2 EnMin= -928.964518801874     IErMin= 2 ErrMin= 9.41D-03
 ErrMax= 9.41D-03  0.00D+00 EMaxC= 1.00D-01 BMatC= 3.73D-02 BMatP= 4.20D-01
 IDIUse=3 WtCom= 9.06D-01 WtEn= 9.41D-02
 Coeff-Com:  0.181D+00 0.819D+00
 Coeff-En:   0.297D+00 0.703D+00
 Coeff:      0.192D+00 0.808D+00
 Gap=     0.170 Goal=   None    Shift=    0.000
 RMSDP=1.11D-02 MaxDP=7.31D-01 DE=-1.21D-01 OVMax= 1.62D-01

 Cycle   3  Pass 1  IDiag  1:
 RMSU=  9.01D-03    CP:  1.21D+00  1.29D+00
 E= -929.190790080916     Delta-E=       -0.226271279043 Rises=F Damp=F
 DIIS: error= 6.43D-03 at cycle   3 NSaved=   3.
 NSaved= 3 IEnMin= 3 EnMin= -929.190790080916     IErMin= 3 ErrMin= 6.43D-03
 ErrMax= 6.43D-03  0.00D+00 EMaxC= 1.00D-01 BMatC= 1.96D-02 BMatP= 3.73D-02
 IDIUse=3 WtCom= 9.36D-01 WtEn= 6.43D-02
 Coeff-Com:  0.619D-01 0.438D+00 0.500D+00
 Coeff-En:   0.000D+00 0.000D+00 0.100D+01
 Coeff:      0.579D-01 0.410D+00 0.532D+00
 Gap=     0.169 Goal=   None    Shift=    0.000
 RMSDP=6.40D-03 MaxDP=7.39D-01 DE=-2.26D-01 OVMax= 4.13D-02

 Cycle   4  Pass 1  IDiag  1:
 RMSU=  2.92D-03    CP:  1.15D+00  1.14D+00  9.88D-01
 E= -929.206447274782     Delta-E=       -0.015657193866 Rises=F Damp=F
 DIIS: error= 2.23D-03 at cycle   4 NSaved=   4.
 NSaved= 4 IEnMin= 4 EnMin= -929.206447274782     IErMin= 4 ErrMin= 2.23D-03
 ErrMax= 2.23D-03  0.00D+00 EMaxC= 1.00D-01 BMatC= 2.17D-03 BMatP= 1.96D-02
 IDIUse=3 WtCom= 9.78D-01 WtEn= 2.23D-02
 Coeff-Com:  0.358D-02 0.768D-01 0.269D+00 0.651D+00
 Coeff-En:   0.000D+00 0.000D+00 0.697D-01 0.930D+00
 Coeff:      0.350D-02 0.751D-01 0.264D+00 0.657D+00
 Gap=     0.167 Goal=   None    Shift=    0.000
 RMSDP=1.56D-03 MaxDP=1.06D-01 DE=-1.57D-02 OVMax= 1.53D-02

 Cycle   5  Pass 1  IDiag  1:
 RMSU=  8.30D-04    CP:  1.15D+00  1.18D+00  9.72D-01  7.31D-01
 E= -929.208284761003     Delta-E=       -0.001837486221 Rises=F Damp=F
 DIIS: error= 6.82D-04 at cycle   5 NSaved=   5.
 NSaved= 5 IEnMin= 5 EnMin= -929.208284761003     IErMin= 5 ErrMin= 6.82D-04
 ErrMax= 6.82D-04  0.00D+00 EMaxC= 1.00D-01 BMatC= 2.11D-04 BMatP= 2.17D-03
 IDIUse=3 WtCom= 9.93D-01 WtEn= 6.82D-03
 Coeff-Com: -0.323D-02 0.958D-02 0.107D+00 0.355D+00 0.532D+00
 Coeff-En:   0.000D+00 0.000D+00 0.000D+00 0.000D+00 0.100D+01
 Coeff:     -0.320D-02 0.952D-02 0.106D+00 0.353D+00 0.535D+00
 Gap=     0.167 Goal=   None    Shift=    0.000
 RMSDP=4.17D-04 MaxDP=4.04D-02 DE=-1.84D-03 OVMax= 5.70D-03

 Cycle   6  Pass 1  IDiag  1:
 RMSU=  3.25D-04    CP:  1.15D+00  1.18D+00  9.89D-01  7.79D-01  1.04D+00
 E= -929.208475316946     Delta-E=       -0.000190555942 Rises=F Damp=F
 DIIS: error= 1.51D-04 at cycle   6 NSaved=   6.
 NSaved= 6 IEnMin= 6 EnMin= -929.208475316946     IErMin= 6 ErrMin= 1.51D-04
 ErrMax= 1.51D-04  0.00D+00 EMaxC= 1.00D-01 BMatC= 7.34D-06 BMatP= 2.11D-04
 IDIUse=3 WtCom= 9.98D-01 WtEn= 1.51D-03
 Coeff-Com: -0.114D-02-0.248D-02 0.139D-01 0.614D-01 0.184D+00 0.744D+00
 Coeff-En:   0.000D+00 0.000D+00 0.000D+00 0.000D+00 0.000D+00 0.100D+01
 Coeff:     -0.113D-02-0.248D-02 0.139D-01 0.613D-01 0.184D+00 0.745D+00
 Gap=     0.166 Goal=   None    Shift=    0.000
 RMSDP=1.44D-04 MaxDP=1.53D-02 DE=-1.91D-04 OVMax= 1.54D-03

 Cycle   7  Pass 1  IDiag  1:
 RMSU=  7.64D-05    CP:  1.15D+00  1.19D+00  9.94D-01  7.68D-01  1.08D+00
                    CP:  9.82D-01
 E= -929.208482779440     Delta-E=       -0.000007462494 Rises=F Damp=F
 DIIS: error= 5.57D-05 at cycle   7 NSaved=   7.
 NSaved= 7 IEnMin= 7 EnMin= -929.208482779440     IErMin= 7 ErrMin= 5.57D-05
 ErrMax= 5.57D-05  0.00D+00 EMaxC= 1.00D-01 BMatC= 1.34D-06 BMatP= 7.34D-06
 IDIUse=1 WtCom= 1.00D+00 WtEn= 0.00D+00
 Coeff-Com: -0.218D-03-0.231D-02-0.376D-02-0.533D-02 0.223D-01 0.333D+00
 Coeff-Com:  0.656D+00
 Coeff:     -0.218D-03-0.231D-02-0.376D-02-0.533D-02 0.223D-01 0.333D+00
 Coeff:      0.656D+00
 Gap=     0.166 Goal=   None    Shift=    0.000
 RMSDP=4.37D-05 MaxDP=3.21D-03 DE=-7.46D-06 OVMax= 7.41D-04

 Cycle   8  Pass 1  IDiag  1:
 RMSU=  3.23D-05    CP:  1.15D+00  1.19D+00  9.95D-01  7.74D-01  1.08D+00
                    CP:  1.00D+00  7.82D-01
 E= -929.208484139861     Delta-E=       -0.000001360421 Rises=F Damp=F
 DIIS: error= 1.87D-05 at cycle   8 NSaved=   8.
 NSaved= 8 IEnMin= 8 EnMin= -929.208484139861     IErMin= 8 ErrMin= 1.87D-05
 ErrMax= 1.87D-05  0.00D+00 EMaxC= 1.00D-01 BMatC= 1.67D-07 BMatP= 1.34D-06
 IDIUse=1 WtCom= 1.00D+00 WtEn= 0.00D+00
 Coeff-Com:  0.420D-04-0.783D-03-0.325D-02-0.934D-02-0.139D-01 0.749D-01
 Coeff-Com:  0.305D+00 0.647D+00
 Coeff:      0.420D-04-0.783D-03-0.325D-02-0.934D-02-0.139D-01 0.749D-01
 Coeff:      0.305D+00 0.647D+00
 Gap=     0.166 Goal=   None    Shift=    0.000
 RMSDP=2.35D-05 MaxDP=2.31D-03 DE=-1.36D-06 OVMax= 1.82D-04

 Cycle   9  Pass 1  IDiag  1:
 RMSU=  1.01D-05    CP:  1.15D+00  1.19D+00  9.95D-01  7.74D-01  1.09D+00
                    CP:  1.01D+00  9.03D-01  9.01D-01
 E= -929.208484284215     Delta-E=       -0.000000144354 Rises=F Damp=F
 DIIS: error= 8.55D-06 at cycle   9 NSaved=   9.
 NSaved= 9 IEnMin= 9 EnMin= -929.208484284215     IErMin= 9 ErrMin= 8.55D-06
 ErrMax= 8.55D-06  0.00D+00 EMaxC= 1.00D-01 BMatC= 4.12D-08 BMatP= 1.67D-07
 IDIUse=1 WtCom= 1.00D+00 WtEn= 0.00D+00
 Coeff-Com:  0.687D-04 0.291D-05-0.947D-03-0.370D-02-0.121D-01-0.947D-02
 Coeff-Com:  0.709D-01 0.370D+00 0.586D+00
 Coeff:      0.687D-04 0.291D-05-0.947D-03-0.370D-02-0.121D-01-0.947D-02
 Coeff:      0.709D-01 0.370D+00 0.586D+00
 Gap=     0.166 Goal=   None    Shift=    0.000
 RMSDP=7.07D-06 MaxDP=6.38D-04 DE=-1.44D-07 OVMax= 1.74D-04

 Cycle  10  Pass 1  IDiag  1:
 RMSU=  3.45D-06    CP:  1.15D+00  1.19D+00  9.95D-01  7.74D-01  1.09D+00
                    CP:  1.01D+00  8.89D-01  9.48D-01  9.90D-01
 E= -929.208484331745     Delta-E=       -0.000000047530 Rises=F Damp=F
 DIIS: error= 2.54D-06 at cycle  10 NSaved=  10.
 NSaved=10 IEnMin=10 EnMin= -929.208484331745     IErMin=10 ErrMin= 2.54D-06
 ErrMax= 2.54D-06  0.00D+00 EMaxC= 1.00D-01 BMatC= 3.89D-09 BMatP= 4.12D-08
 IDIUse=1 WtCom= 1.00D+00 WtEn= 0.00D+00
 Coeff-Com:  0.170D-04 0.615D-04 0.280D-04-0.213D-03-0.303D-02-0.103D-01
 Coeff-Com: -0.964D-02 0.247D-01 0.245D+00 0.754D+00
 Coeff:      0.170D-04 0.615D-04 0.280D-04-0.213D-03-0.303D-02-0.103D-01
 Coeff:     -0.964D-02 0.247D-01 0.245D+00 0.754D+00
 Gap=     0.166 Goal=   None    Shift=    0.000
 RMSDP=2.60D-06 MaxDP=1.36D-04 DE=-4.75D-08 OVMax= 2.92D-05

 Cycle  11  Pass 1  IDiag  1:
 RMSU=  1.30D-06    CP:  1.15D+00  1.19D+00  9.95D-01  7.74D-01  1.09D+00
                    CP:  1.01D+00  9.00D-01  9.78D-01  1.10D+00  1.10D+00
 E= -929.208484335739     Delta-E=       -0.000000003993 Rises=F Damp=F
 DIIS: error= 7.60D-07 at cycle  11 NSaved=  11.
 NSaved=11 IEnMin=11 EnMin= -929.208484335739     IErMin=11 ErrMin= 7.60D-07
 ErrMax= 7.60D-07  0.00D+00 EMaxC= 1.00D-01 BMatC= 4.14D-10 BMatP= 3.89D-09
 IDIUse=1 WtCom= 1.00D+00 WtEn= 0.00D+00
 Coeff-Com:  0.181D-05 0.276D-04 0.112D-03 0.274D-03-0.247D-03-0.338D-02
 Coeff-Com: -0.117D-01-0.351D-01 0.683D-01 0.333D+00 0.649D+00
 Coeff:      0.181D-05 0.276D-04 0.112D-03 0.274D-03-0.247D-03-0.338D-02
 Coeff:     -0.117D-01-0.351D-01 0.683D-01 0.333D+00 0.649D+00
 Gap=     0.166 Goal=   None    Shift=    0.000
 RMSDP=6.72D-07 MaxDP=3.52D-05 DE=-3.99D-09 OVMax= 1.27D-05

 Cycle  12  Pass 1  IDiag  1:
 RMSU=  4.11D-07    CP:  1.15D+00  1.19D+00  9.95D-01  7.74D-01  1.09D+00
                    CP:  1.01D+00  9.03D-01  9.88D-01  1.12D+00  1.13D+00
                    CP:  1.10D+00
 E= -929.208484336202     Delta-E=       -0.000000000463 Rises=F Damp=F
 DIIS: error= 4.44D-07 at cycle  12 NSaved=  12.
 NSaved=12 IEnMin=12 EnMin= -929.208484336202     IErMin=12 ErrMin= 4.44D-07
 ErrMax= 4.44D-07  0.00D+00 EMaxC= 1.00D-01 BMatC= 6.86D-11 BMatP= 4.14D-10
 IDIUse=1 WtCom= 1.00D+00 WtEn= 0.00D+00
 Coeff-Com: -0.400D-06 0.443D-05 0.500D-04 0.142D-03 0.220D-03-0.127D-03
 Coeff-Com: -0.375D-02-0.197D-01 0.878D-02 0.445D-01 0.301D+00 0.669D+00
 Coeff:     -0.400D-06 0.443D-05 0.500D-04 0.142D-03 0.220D-03-0.127D-03
 Coeff:     -0.375D-02-0.197D-01 0.878D-02 0.445D-01 0.301D+00 0.669D+00
 Gap=     0.166 Goal=   None    Shift=    0.000
 RMSDP=2.69D-07 MaxDP=2.31D-05 DE=-4.63D-10 OVMax= 4.06D-06

 Cycle  13  Pass 1  IDiag  1:
 RMSU=  1.19D-07    CP:  1.15D+00  1.19D+00  9.95D-01  7.74D-01  1.09D+00
                    CP:  1.01D+00  9.03D-01  9.91D-01  1.13D+00  1.15D+00
                    CP:  1.18D+00  1.13D+00
 E= -929.208484336244     Delta-E=       -0.000000000041 Rises=F Damp=F
 DIIS: error= 2.91D-07 at cycle  13 NSaved=  13.
 NSaved=13 IEnMin=13 EnMin= -929.208484336244     IErMin=13 ErrMin= 2.91D-07
 ErrMax= 2.91D-07  0.00D+00 EMaxC= 1.00D-01 BMatC= 2.87D-11 BMatP= 6.86D-11
 IDIUse=1 WtCom= 1.00D+00 WtEn= 0.00D+00
 Coeff-Com: -0.721D-06-0.374D-05 0.121D-04 0.417D-04 0.243D-03 0.743D-03
 Coeff-Com:  0.474D-05-0.660D-02-0.106D-01-0.575D-01 0.532D-01 0.478D+00
 Coeff-Com:  0.543D+00
 Coeff:     -0.721D-06-0.374D-05 0.121D-04 0.417D-04 0.243D-03 0.743D-03
 Coeff:      0.474D-05-0.660D-02-0.106D-01-0.575D-01 0.532D-01 0.478D+00
 Coeff:      0.543D+00
 Gap=     0.166 Goal=   None    Shift=    0.000
 RMSDP=1.62D-07 MaxDP=1.31D-05 DE=-4.14D-11 OVMax= 1.81D-06

 Cycle  14  Pass 1  IDiag  1:
 RMSU=  5.25D-08    CP:  1.15D+00  1.19D+00  9.95D-01  7.74D-01  1.09D+00
                    CP:  1.00D+00  9.04D-01  9.92D-01  1.13D+00  1.16D+00
                    CP:  1.23D+00  1.18D+00  1.09D+00
 E= -929.208484336278     Delta-E=       -0.000000000035 Rises=F Damp=F
 DIIS: error= 2.53D-08 at cycle  14 NSaved=  14.
 NSaved=14 IEnMin=14 EnMin= -929.208484336278     IErMin=14 ErrMin= 2.53D-08
 ErrMax= 2.53D-08  0.00D+00 EMaxC= 1.00D-01 BMatC= 4.40D-13 BMatP= 2.87D-11
 IDIUse=1 WtCom= 1.00D+00 WtEn= 0.00D+00
 Coeff-Com: -0.171D-06-0.138D-05 0.776D-07 0.640D-06 0.540D-04 0.241D-03
 Coeff-Com:  0.326D-03-0.476D-03-0.331D-02-0.215D-01-0.639D-02 0.980D-01
 Coeff-Com:  0.174D+00 0.760D+00
 Coeff:     -0.171D-06-0.138D-05 0.776D-07 0.640D-06 0.540D-04 0.241D-03
 Coeff:      0.326D-03-0.476D-03-0.331D-02-0.215D-01-0.639D-02 0.980D-01
 Coeff:      0.174D+00 0.760D+00
 Gap=     0.166 Goal=   None    Shift=    0.000
 RMSDP=8.22D-08 MaxDP=1.05D-05 DE=-3.48D-11 OVMax= 4.74D-07

 Cycle  15  Pass 1  IDiag  1:
 RMSU=  1.87D-08    CP:  1.15D+00  1.19D+00  9.95D-01  7.74D-01  1.09D+00
                    CP:  1.00D+00  9.04D-01  9.93D-01  1.13D+00  1.16D+00
                    CP:  1.25D+00  1.22D+00  1.12D+00  1.03D+00
 E= -929.208484336294     Delta-E=       -0.000000000016 Rises=F Damp=F
 DIIS: error= 1.47D-08 at cycle  15 NSaved=  15.
 NSaved=15 IEnMin=15 EnMin= -929.208484336294     IErMin=15 ErrMin= 1.47D-08
 ErrMax= 1.47D-08  0.00D+00 EMaxC= 1.00D-01 BMatC= 9.99D-14 BMatP= 4.40D-13
 IDIUse=1 WtCom= 1.00D+00 WtEn= 0.00D+00
 Coeff-Com: -0.466D-07-0.360D-06-0.111D-05-0.364D-05 0.670D-05 0.626D-04
 Coeff-Com:  0.184D-03 0.397D-03-0.784D-03-0.599D-02-0.905D-02 0.499D-02
 Coeff-Com:  0.392D-01 0.381D+00 0.590D+00
 Coeff:     -0.466D-07-0.360D-06-0.111D-05-0.364D-05 0.670D-05 0.626D-04
 Coeff:      0.184D-03 0.397D-03-0.784D-03-0.599D-02-0.905D-02 0.499D-02
 Coeff:      0.392D-01 0.381D+00 0.590D+00
 Gap=     0.166 Goal=   None    Shift=    0.000
 RMSDP=3.72D-08 MaxDP=4.98D-06 DE=-1.61D-11 OVMax= 1.61D-07

 Cycle  16  Pass 1  IDiag  1:
 RMSU=  5.16D-09    CP:  1.15D+00  1.19D+00  9.95D-01  7.74D-01  1.09D+00
                    CP:  1.00D+00  9.04D-01  9.93D-01  1.13D+00  1.16D+00
                    CP:  1.25D+00  1.23D+00  1.17D+00  1.10D+00  1.10D+00
 E= -929.208484336304     Delta-E=       -0.000000000010 Rises=F Damp=F
 DIIS: error= 5.80D-09 at cycle  16 NSaved=  16.
 NSaved=16 IEnMin=16 EnMin= -929.208484336304     IErMin=16 ErrMin= 5.80D-09
 ErrMax= 5.80D-09  0.00D+00 EMaxC= 1.00D-01 BMatC= 1.65D-14 BMatP= 9.99D-14
 IDIUse=1 WtCom= 1.00D+00 WtEn= 0.00D+00
 Coeff-Com: -0.957D-08 0.738D-07-0.538D-06-0.187D-05-0.583D-05-0.133D-04
 Coeff-Com:  0.307D-04 0.280D-03 0.186D-03 0.804D-03-0.328D-02-0.141D-01
 Coeff-Com: -0.867D-02 0.710D-01 0.315D+00 0.638D+00
 Coeff:     -0.957D-08 0.738D-07-0.538D-06-0.187D-05-0.583D-05-0.133D-04
 Coeff:      0.307D-04 0.280D-03 0.186D-03 0.804D-03-0.328D-02-0.141D-01
 Coeff:     -0.867D-02 0.710D-01 0.315D+00 0.638D+00
 Gap=     0.166 Goal=   None    Shift=    0.000
 RMSDP=1.98D-08 MaxDP=2.51D-06 DE=-1.00D-11 OVMax= 7.35D-08

 Cycle  17  Pass 1  IDiag  1:
 RMSU=  2.85D-09    CP:  1.15D+00  1.19D+00  9.95D-01  7.74D-01  1.09D+00
                    CP:  1.00D+00  9.04D-01  9.93D-01  1.13D+00  1.16D+00
                    CP:  1.25D+00  1.24D+00  1.19D+00  1.13D+00  1.14D+00
                    CP:  1.03D+00
 E= -929.208484336296     Delta-E=        0.000000000008 Rises=F Damp=F
 DIIS: error= 2.29D-09 at cycle  17 NSaved=  17.
 NSaved=17 IEnMin=16 EnMin= -929.208484336304     IErMin=17 ErrMin= 2.29D-09
 ErrMax= 2.29D-09  0.00D+00 EMaxC= 1.00D-01 BMatC= 1.63D-15 BMatP= 1.65D-14
 IDIUse=1 WtCom= 1.00D+00 WtEn= 0.00D+00
 Coeff-Com: -0.390D-08 0.723D-07-0.214D-06-0.684D-06-0.329D-05-0.125D-04
 Coeff-Com: -0.940D-06 0.109D-03 0.115D-03 0.883D-03-0.899D-03-0.734D-02
 Coeff-Com: -0.758D-02-0.273D-02 0.842D-01 0.286D+00 0.648D+00
 Coeff:     -0.390D-08 0.723D-07-0.214D-06-0.684D-06-0.329D-05-0.125D-04
 Coeff:     -0.940D-06 0.109D-03 0.115D-03 0.883D-03-0.899D-03-0.734D-02
 Coeff:     -0.758D-02-0.273D-02 0.842D-01 0.286D+00 0.648D+00
 Gap=     0.166 Goal=   None    Shift=    0.000
 RMSDP=7.54D-09 MaxDP=9.65D-07 DE= 8.41D-12 OVMax= 3.26D-08

 Error on total polarization charges =  0.01265
 SCF Done:  E(RM06) =  -929.208484336     A.U. after   17 cycles
            NFock= 17  Conv=0.75D-08     -V/T= 2.0074
 KE= 9.223415065088D+02 PE=-3.849463315707D+03 EE= 1.163342813144D+03
 Leave Link  502 at Thu Aug  2 19:50:24 2018, MaxMem=  1073741824 cpu:            1443.7 elap:              91.2
 (Enter /shared/apps/gaussian/gaussian-16/g16/l601.exe)
 Copying SCF densities to generalized density rwf, IOpCl= 0 IROHF=0.

 **********************************************************************

            Population analysis using the SCF density.

 **********************************************************************

 Orbital symmetries:
       Occupied  (A) (A) (A) (A) (A) (A) (A) (A) (A) (A) (A) (A)
                 (A) (A) (A) (A) (A) (A) (A) (A) (A) (A) (A) (A)
                 (A) (A) (A) (A) (A) (A) (A) (A) (A) (A) (A) (A)
                 (A) (A) (A) (A) (A) (A) (A) (A) (A) (A) (A) (A)
       Virtual   (A) (A) (A) (A) (A) (A) (A) (A) (A) (A) (A) (A)
                 (A) (A) (A) (A) (A) (A) (A) (A) (A) (A) (A) (A)
                 (A) (A) (A) (A) (A) (A) (A) (A) (A) (A) (A) (A)
                 (A) (A) (A) (A) (A) (A) (A) (A) (A) (A) (A) (A)
                 (A) (A) (A) (A) (A) (A) (A) (A) (A) (A) (A) (A)
                 (A) (A) (A) (A) (A) (A) (A) (A) (A) (A) (A) (A)
                 (A) (A) (A) (A) (A) (A) (A) (A) (A) (A) (A) (A)
                 (A) (A) (A) (A) (A) (A) (A) (A) (A) (A) (A) (A)
                 (A) (A) (A) (A) (A) (A) (A) (A) (A) (A) (A) (A)
                 (A) (A) (A) (A) (A) (A) (A) (A) (A) (A) (A) (A)
                 (A) (A) (A) (A) (A) (A) (A) (A) (A) (A) (A) (A)
                 (A) (A) (A) (A) (A) (A) (A) (A) (A) (A) (A) (A)
                 (A) (A) (A) (A) (A) (A) (A) (A) (A) (A) (A) (A)
                 (A) (A) (A) (A) (A) (A) (A) (A) (A) (A) (A) (A)
                 (A) (A) (A) (A) (A) (A) (A) (A) (A) (A) (A) (A)
                 (A) (A) (A) (A) (A) (A) (A) (A) (A) (A) (A) (A)
                 (A) (A) (A) (A) (A) (A) (A) (A) (A) (A) (A) (A)
                 (A) (A) (A) (A) (A) (A) (A) (A) (A) (A) (A) (A)
                 (A) (A) (A) (A) (A) (A) (A) (A)
 The electronic state is 1-A.
 Alpha  occ. eigenvalues --  -89.29715 -19.26384 -19.26382 -14.52662 -14.52597
 Alpha  occ. eigenvalues --  -10.36344 -10.32062 -10.31961 -10.31349 -10.30600
 Alpha  occ. eigenvalues --  -10.27900 -10.27115  -8.26836  -6.18589  -6.18497
 Alpha  occ. eigenvalues --   -6.18435  -1.18236  -1.16104  -1.05921  -0.91317
 Alpha  occ. eigenvalues --   -0.83198  -0.78826  -0.74092  -0.72384  -0.66220
 Alpha  occ. eigenvalues --   -0.65479  -0.61090  -0.58499  -0.56197  -0.51487
 Alpha  occ. eigenvalues --   -0.50375  -0.50066  -0.48406  -0.46983  -0.45025
 Alpha  occ. eigenvalues --   -0.44731  -0.44261  -0.43298  -0.41799  -0.40986
 Alpha  occ. eigenvalues --   -0.39443  -0.39116  -0.37159  -0.36901  -0.34417
 Alpha  occ. eigenvalues --   -0.32548  -0.31846  -0.25747
 Alpha virt. eigenvalues --   -0.09115  -0.07872  -0.02163  -0.01506  -0.01123
 Alpha virt. eigenvalues --   -0.00212   0.00315   0.00570   0.00879   0.01415
 Alpha virt. eigenvalues --    0.02004   0.02467   0.03327   0.04042   0.04402
 Alpha virt. eigenvalues --    0.05040   0.05493   0.05745   0.06622   0.06978
 Alpha virt. eigenvalues --    0.07426   0.08310   0.09590   0.09900   0.10687
 Alpha virt. eigenvalues --    0.11034   0.11367   0.12322   0.12474   0.12942
 Alpha virt. eigenvalues --    0.13088   0.14540   0.15101   0.15415   0.16427
 Alpha virt. eigenvalues --    0.16646   0.17141   0.17547   0.18056   0.18648
 Alpha virt. eigenvalues --    0.19115   0.19626   0.19695   0.20296   0.20973
 Alpha virt. eigenvalues --    0.21381   0.21960   0.22166   0.22931   0.23139
 Alpha virt. eigenvalues --    0.24498   0.25362   0.25588   0.26253   0.26688
 Alpha virt. eigenvalues --    0.27492   0.28700   0.29059   0.29602   0.29874
 Alpha virt. eigenvalues --    0.31374   0.32123   0.33690   0.35155   0.35273
 Alpha virt. eigenvalues --    0.35544   0.37034   0.39179   0.39925   0.41465
 Alpha virt. eigenvalues --    0.41880   0.48991   0.52071   0.54940   0.59535
 Alpha virt. eigenvalues --    0.59685   0.60176   0.63659   0.64895   0.65443
 Alpha virt. eigenvalues --    0.66531   0.67012   0.69113   0.69750   0.72141
 Alpha virt. eigenvalues --    0.73701   0.74507   0.74595   0.77090   0.77857
 Alpha virt. eigenvalues --    0.79845   0.81585   0.82615   0.84755   0.84918
 Alpha virt. eigenvalues --    0.87000   0.89913   0.90614   0.92432   0.93296
 Alpha virt. eigenvalues --    0.93972   0.94498   0.95612   0.97455   0.97662
 Alpha virt. eigenvalues --    0.98492   1.01642   1.02028   1.04581   1.06538
 Alpha virt. eigenvalues --    1.08444   1.09056   1.10286   1.10644   1.12981
 Alpha virt. eigenvalues --    1.14870   1.18619   1.19764   1.22172   1.24875
 Alpha virt. eigenvalues --    1.26712   1.27423   1.27484   1.27914   1.31105
 Alpha virt. eigenvalues --    1.34663   1.36296   1.36343   1.37787   1.42342
 Alpha virt. eigenvalues --    1.44221   1.44740   1.47218   1.50044   1.53390
 Alpha virt. eigenvalues --    1.53667   1.56411   1.57271   1.65246   1.68340
 Alpha virt. eigenvalues --    1.69326   1.74034   1.75210   1.76465   1.77340
 Alpha virt. eigenvalues --    1.79749   1.80891   1.81178   1.82312   1.83126
 Alpha virt. eigenvalues --    1.85736   1.86903   1.89555   1.92329   1.94569
 Alpha virt. eigenvalues --    1.95259   1.98268   2.00534   2.00771   2.02011
 Alpha virt. eigenvalues --    2.02976   2.04810   2.06310   2.07253   2.09346
 Alpha virt. eigenvalues --    2.10402   2.11892   2.15939   2.16600   2.17335
 Alpha virt. eigenvalues --    2.20652   2.21180   2.27610   2.29388   2.32300
 Alpha virt. eigenvalues --    2.34127   2.34771   2.37330   2.42195   2.42338
 Alpha virt. eigenvalues --    2.45373   2.48001   2.48903   2.51977   2.53887
 Alpha virt. eigenvalues --    2.54700   2.58421   2.61337   2.63927   2.68942
 Alpha virt. eigenvalues --    2.72105   2.72641   2.76008   2.78150   2.81279
 Alpha virt. eigenvalues --    2.85460   2.87000   2.90005   2.90136   2.91467
 Alpha virt. eigenvalues --    2.97233   2.97548   3.04648   3.15967   3.23831
 Alpha virt. eigenvalues --    3.26176   3.28325   3.37898   3.40718   3.40839
 Alpha virt. eigenvalues --    3.43468   3.55784   3.93153   3.95711   4.12494
 Alpha virt. eigenvalues --    4.16349   4.23062   4.27567   4.31795   4.39956
 Alpha virt. eigenvalues --    4.43600   4.54396   4.60256   4.67455
          Condensed to atoms (all electrons):
               1          2          3          4          5          6
     1  C    7.972243  -1.311316  -1.512923   0.537639   0.143367  -0.971966
     2  C   -1.311316   8.861477  -1.472765   1.521222   1.105218  -1.820010
     3  C   -1.512923  -1.472765  10.866333  -3.946403  -0.815175   3.041012
     4  C    0.537639   1.521222  -3.946403  14.810794  -8.934549   1.355870
     5  C    0.143367   1.105218  -0.815175  -8.934549  34.578818 -16.667890
     6  C   -0.971966  -1.820010   3.041012   1.355870 -16.667890  20.493519
     7  C   -0.025961  -0.105653  -0.044650   0.875623  -3.493065   1.080507
     8  N   -0.005798  -0.042483   0.093880   0.052954  -0.260502   0.477016
     9  N   -0.005811  -0.042478   0.093872   0.053160  -0.260675   0.476669
    10  S    0.284291  -0.180207  -0.155679  -1.178706   1.242207  -0.915050
    11  O   -0.081981  -0.079439  -0.000586   0.116107   0.015160  -0.157066
    12  O   -0.082536  -0.079707  -0.000907   0.116587   0.014328  -0.157383
    13  H    0.421927  -0.062557  -0.030445   0.005459  -0.006156  -0.002381
    14  H    0.422670  -0.063222  -0.030381   0.005423  -0.006179  -0.002369
    15  H    0.525076  -0.198501   0.023778   0.005914  -0.008690  -0.000384
    16  H   -0.017261   0.117906   0.147966   0.073173  -0.026768   0.002930
    17  H    0.002142  -0.032747   0.048903   0.044036   0.280925  -0.069099
    18  H    0.000095   0.003335   0.000791  -0.012868   0.069894  -0.059341
    19  H    0.000229   0.001075  -0.000638  -0.003053   0.042929  -0.132226
    20  H    0.000097   0.003357   0.000786  -0.012864   0.070135  -0.059333
               7          8          9         10         11         12
     1  C   -0.025961  -0.005798  -0.005811   0.284291  -0.081981  -0.082536
     2  C   -0.105653  -0.042483  -0.042478  -0.180207  -0.079439  -0.079707
     3  C   -0.044650   0.093880   0.093872  -0.155679  -0.000586  -0.000907
     4  C    0.875623   0.052954   0.053160  -1.178706   0.116107   0.116587
     5  C   -3.493065  -0.260502  -0.260675   1.242207   0.015160   0.014328
     6  C    1.080507   0.477016   0.476669  -0.915050  -0.157066  -0.157383
     7  C    7.359888  -0.200886  -0.200663  -0.210248  -0.005697  -0.005653
     8  N   -0.200886   6.443406   0.408479   0.001104  -0.001996   0.001609
     9  N   -0.200663   0.408479   6.443507   0.001063   0.001595  -0.002011
    10  S   -0.210248   0.001104   0.001063  15.622047   0.269328   0.270276
    11  O   -0.005697  -0.001996   0.001595   0.269328   8.726974  -0.240481
    12  O   -0.005653   0.001609  -0.002011   0.270276  -0.240481   8.727704
    13  H    0.000288  -0.000009   0.000013   0.018702  -0.002609   0.007507
    14  H    0.000285   0.000013  -0.000009   0.018517   0.007478  -0.002601
    15  H   -0.000070  -0.000004  -0.000004   0.010879  -0.000250  -0.000248
    16  H    0.000136   0.000037   0.000037   0.020305  -0.000636  -0.000637
    17  H    0.007883   0.001270   0.001272   0.029761  -0.000427  -0.000428
    18  H    0.336597  -0.010630   0.012040   0.014730  -0.002972  -0.001203
    19  H    0.454515   0.000182   0.000144  -0.001202   0.000233   0.000233
    20  H    0.336419   0.012007  -0.010600   0.014723  -0.001197  -0.002964
              13         14         15         16         17         18
     1  C    0.421927   0.422670   0.525076  -0.017261   0.002142   0.000095
     2  C   -0.062557  -0.063222  -0.198501   0.117906  -0.032747   0.003335
     3  C   -0.030445  -0.030381   0.023778   0.147966   0.048903   0.000791
     4  C    0.005459   0.005423   0.005914   0.073173   0.044036  -0.012868
     5  C   -0.006156  -0.006179  -0.008690  -0.026768   0.280925   0.069894
     6  C   -0.002381  -0.002369  -0.000384   0.002930  -0.069099  -0.059341
     7  C    0.000288   0.000285  -0.000070   0.000136   0.007883   0.336597
     8  N   -0.000009   0.000013  -0.000004   0.000037   0.001270  -0.010630
     9  N    0.000013  -0.000009  -0.000004   0.000037   0.001272   0.012040
    10  S    0.018702   0.018517   0.010879   0.020305   0.029761   0.014730
    11  O   -0.002609   0.007478  -0.000250  -0.000636  -0.000427  -0.002972
    12  O    0.007507  -0.002601  -0.000248  -0.000637  -0.000428  -0.001203
    13  H    0.494658  -0.026286  -0.020252   0.000052   0.000002  -0.000000
    14  H   -0.026286   0.494738  -0.020244   0.000052   0.000002   0.000000
    15  H   -0.020252  -0.020244   0.480281   0.001012   0.000000   0.000000
    16  H    0.000052   0.000052   0.001012   0.479210  -0.002930   0.000000
    17  H    0.000002   0.000002   0.000000  -0.002930   0.484172  -0.000002
    18  H   -0.000000   0.000000   0.000000   0.000000  -0.000002   0.495080
    19  H    0.000000   0.000000  -0.000000  -0.000000   0.000001  -0.019963
    20  H    0.000000  -0.000000   0.000000   0.000000  -0.000002  -0.025735
              19         20
     1  C    0.000229   0.000097
     2  C    0.001075   0.003357
     3  C   -0.000638   0.000786
     4  C   -0.003053  -0.012864
     5  C    0.042929   0.070135
     6  C   -0.132226  -0.059333
     7  C    0.454515   0.336419
     8  N    0.000182   0.012007
     9  N    0.000144  -0.010600
    10  S   -0.001202   0.014723
    11  O    0.000233  -0.001197
    12  O    0.000233  -0.002964
    13  H    0.000000   0.000000
    14  H    0.000000  -0.000000
    15  H   -0.000000   0.000000
    16  H   -0.000000   0.000000
    17  H    0.000001  -0.000002
    18  H   -0.019963  -0.025735
    19  H    0.490410  -0.019972
    20  H   -0.019972   0.494909
 Mulliken charges:
               1
     1  C   -0.294222
     2  C   -0.122506
     3  C   -0.306769
     4  C    0.514482
     5  C   -1.083331
     6  C    0.086975
     7  C   -0.159596
     8  N    0.030350
     9  N    0.030400
    10  S    0.823159
    11  O   -0.561541
    12  O   -0.561483
    13  H    0.202088
    14  H    0.202113
    15  H    0.201708
    16  H    0.205416
    17  H    0.205268
    18  H    0.200151
    19  H    0.187103
    20  H    0.200235
 Sum of Mulliken charges =  -0.00000
 Mulliken charges with hydrogens summed into heavy atoms:
               1
     1  C    0.311687
     2  C   -0.122506
     3  C   -0.101354
     4  C    0.719750
     5  C   -1.083331
     6  C    0.086975
     7  C    0.427893
     8  N    0.030350
     9  N    0.030400
    10  S    0.823159
    11  O   -0.561541
    12  O   -0.561483
 Electronic spatial extent (au):  <R**2>=           2093.8812
 Charge=             -0.0000 electrons
 Dipole moment (field-independent basis, Debye):
    X=             -1.7899    Y=              4.4034    Z=             -0.0011  Tot=              4.7533
 Quadrupole moment (field-independent basis, Debye-Ang):
   XX=            -67.6676   YY=            -74.1990   ZZ=            -86.3930
   XY=            -12.1153   XZ=              0.0004   YZ=              0.0058
 Traceless Quadrupole moment (field-independent basis, Debye-Ang):
   XX=              8.4189   YY=              1.8875   ZZ=            -10.3065
   XY=            -12.1153   XZ=              0.0004   YZ=              0.0058
 Octapole moment (field-independent basis, Debye-Ang**2):
  XXX=            -54.9999  YYY=             22.9503  ZZZ=              0.0013  XYY=             -0.7639
  XXY=            -11.8592  XXZ=             -0.0076  XZZ=             -1.7097  YZZ=              1.0458
  YYZ=             -0.0194  XYZ=             -0.0016
 Hexadecapole moment (field-independent basis, Debye-Ang**3):
 XXXX=          -1745.0582 YYYY=           -641.6401 ZZZZ=           -248.4032 XXXY=            -80.3728
 XXXZ=              0.0271 YYYX=            -32.6052 YYYZ=              0.0613 ZZZX=             -0.0152
 ZZZY=              0.0348 XXYY=           -408.3560 XXZZ=           -374.1967 YYZZ=           -174.7359
 XXYZ=              0.0182 YYXZ=              0.0215 ZZXY=            -11.5766
 N-N= 8.345705117183D+02 E-N=-3.849463315879D+03  KE= 9.223415065088D+02
 No NMR shielding tensors so no spin-rotation constants.
 Leave Link  601 at Thu Aug  2 19:50:24 2018, MaxMem=  1073741824 cpu:               2.8 elap:               0.2
 (Enter /shared/apps/gaussian/gaussian-16/g16/l701.exe)
 ... and contract with generalized density number  0.
 Compute integral first derivatives.
 D1PCM: PCM CHGder 1st derivatives, ID1Alg=3 FixD1E=F DoIter=F DoCFld=F I1PDM=0.
 GePol: Maximum number of non-zero 1st derivatives   =     220
 Leave Link  701 at Thu Aug  2 19:50:26 2018, MaxMem=  1073741824 cpu:              23.6 elap:               1.5
 (Enter /shared/apps/gaussian/gaussian-16/g16/l702.exe)
 L702 exits ... SP integral derivatives will be done elsewhere.
 Leave Link  702 at Thu Aug  2 19:50:26 2018, MaxMem=  1073741824 cpu:               0.3 elap:               0.0
 (Enter /shared/apps/gaussian/gaussian-16/g16/l703.exe)
 Integral derivatives from FoFJK, PRISM(SPDF).
 Compute integral first derivatives, UseDBF=F ICtDFT=           0.
 Calling FoFJK, ICntrl=      2127 FMM=F ISym2X=0 I1Cent= 0 IOpClX= 0 NMat=1 NMatS=1 NMatT=0.
 FoFJK:  IHMeth= 1 ICntrl=    2127 DoSepK=F KAlg= 0 I1Cent=           0 FoldK=F
 IRaf=         0 NMat=       1 IRICut=       1 DoRegI=T DoRafI=F ISym2E= 0 IDoP0=0 IntGTp=1.
 FoFCou: FMM=F IPFlag=           0 FMFlag=      100000 FMFlg1=         800
         NFxFlg=           0 DoJE=F BraDBF=F KetDBF=F FulRan=T
         wScrn=  0.000000 ICntrl=      2127 IOpCl=  0 I1Cent=           0 NGrid=           0
         NMat0=    1 NMatS0=      1 NMatT0=    0 NMatD0=    1 NMtDS0=    0 NMtDT0=    0
 Symmetry not used in FoFCou.
 Leave Link  703 at Thu Aug  2 19:50:37 2018, MaxMem=  1073741824 cpu:             173.3 elap:              10.9
 (Enter /shared/apps/gaussian/gaussian-16/g16/l716.exe)
 Dipole        =-7.04194617D-01 1.73243816D+00-4.33962116D-04
 ***** Axes restored to original set *****
 -------------------------------------------------------------------
 Center     Atomic                   Forces (Hartrees/Bohr)
 Number     Number              X              Y              Z
 -------------------------------------------------------------------
      1        6          -0.000250084   -0.000929546    0.000169327
      2        6          -0.000523607    0.001127813   -0.000019878
      3        6          -0.001089914   -0.000441084    0.000002660
      4        6           0.000140024   -0.000423727    0.000011271
      5        6           0.000422650   -0.001142661    0.000030802
      6        6           0.001410577   -0.000305968   -0.000054019
      7        6           0.000085792    0.000678613    0.000244604
      8        7          -0.000271823   -0.000445690    0.001853862
      9        7          -0.000275986   -0.000423292   -0.001855595
     10       16           0.000832877    0.014505086    0.000446196
     11        8          -0.000283900   -0.005755298    0.003236945
     12        8          -0.000310387   -0.006103828   -0.003744515
     13        1          -0.000368933    0.000278781    0.000095203
     14        1          -0.000403690    0.000327951   -0.000214811
     15        1           0.000504177   -0.000020308    0.000002105
     16        1           0.000326487   -0.000663360   -0.000009817
     17        1          -0.000601699   -0.000149226   -0.000004197
     18        1           0.000622357    0.000134021   -0.000039907
     19        1          -0.000473086   -0.000351530    0.000006159
     20        1           0.000508169    0.000103252   -0.000156394
 -------------------------------------------------------------------
 Cartesian Forces:  Max     0.014505086 RMS     0.002326335
 Leave Link  716 at Thu Aug  2 19:50:37 2018, MaxMem=  1073741824 cpu:               0.3 elap:               0.0
 (Enter /shared/apps/gaussian/gaussian-16/g16/l103.exe)

 GradGradGradGradGradGradGradGradGradGradGradGradGradGradGradGradGradGrad
 Berny optimization.
 FormGI is forming the generalized inverse of G from B-inverse, IUseBI=4.
 Internal  Forces:  Max     0.006312601 RMS     0.001152229
 Search for a local minimum.
 Step number   1 out of a maximum of  111
 All quantities printed in internal units (Hartrees-Bohrs-Radians)
 RMS Force = .11522D-02 SwitMx=.10000D-02 MixMth= 1
 Mixed Optimization -- RFO/linear search
 Second derivative matrix not updated -- first step.
 ITU=  0
     Eigenvalues ---    0.00794   0.00811   0.01063   0.01265   0.01284
     Eigenvalues ---    0.01417   0.01832   0.01926   0.02191   0.02337
     Eigenvalues ---    0.05843   0.05947   0.07421   0.07523   0.10198
     Eigenvalues ---    0.10201   0.11615   0.12124   0.16000   0.16000
     Eigenvalues ---    0.16000   0.16000   0.16000   0.16000   0.16000
     Eigenvalues ---    0.16000   0.20264   0.22676   0.23107   0.23751
     Eigenvalues ---    0.24526   0.25000   0.25000   0.25968   0.26302
     Eigenvalues ---    0.30905   0.32739   0.33913   0.33937   0.34089
     Eigenvalues ---    0.34130   0.34431   0.34438   0.34757   0.34854
     Eigenvalues ---    0.35057   0.35168   0.35180   0.36857   0.52984
     Eigenvalues ---    0.56247   0.69905   0.90467   0.90675
 RFO step:  Lambda=-4.83103143D-04 EMin= 7.93793052D-03
 Linear search not attempted -- first point.
 Iteration  1 RMS(Cart)=  0.01073950 RMS(Int)=  0.00004902
 Iteration  2 RMS(Cart)=  0.00005074 RMS(Int)=  0.00002205
 Iteration  3 RMS(Cart)=  0.00000000 RMS(Int)=  0.00002205
 ITry= 1 IFail=0 DXMaxC= 3.93D-02 DCOld= 1.00D+10 DXMaxT= 3.00D-01 DXLimC= 3.00D+00 Rises=F
 Variable       Old X    -DE/DX   Delta X   Delta X   Delta X     New X
                                 (Linear)    (Quad)   (Total)
    R1        2.79212   0.00060   0.00000   0.00170   0.00170   2.79383
    R2        2.07436  -0.00014   0.00000  -0.00042  -0.00042   2.07394
    R3        2.07477  -0.00026   0.00000  -0.00076  -0.00076   2.07401
    R4        2.06598  -0.00031   0.00000  -0.00090  -0.00090   2.06508
    R5        2.52863  -0.00144   0.00000  -0.00225  -0.00226   2.52637
    R6        3.39262   0.00021   0.00000  -0.00066  -0.00064   3.39198
    R7        2.77785   0.00064   0.00000   0.00310   0.00308   2.78092
    R8        2.05383  -0.00074   0.00000  -0.00210  -0.00210   2.05173
    R9        2.53806   0.00028   0.00000   0.00095   0.00094   2.53900
   R10        2.05402  -0.00048   0.00000  -0.00135  -0.00135   2.05267
   R11        2.76062   0.00172   0.00000   0.00465   0.00465   2.76527
   R12        3.40107  -0.00040   0.00000  -0.00267  -0.00265   3.39842
   R13        2.82813  -0.00042   0.00000  -0.00129  -0.00129   2.82684
   R14        2.78883  -0.00031   0.00000  -0.00144  -0.00144   2.78739
   R15        2.78883  -0.00030   0.00000  -0.00141  -0.00140   2.78742
   R16        2.07180  -0.00033   0.00000  -0.00098  -0.00098   2.07082
   R17        2.06610  -0.00042   0.00000  -0.00120  -0.00120   2.06489
   R18        2.07111  -0.00012   0.00000  -0.00035  -0.00035   2.07076
   R19        2.31680   0.00151   0.00000   0.00213   0.00212   2.31893
   R20        2.76418   0.00570   0.00000   0.00630   0.00630   2.77048
   R21        2.76324   0.00631   0.00000   0.00696   0.00696   2.77019
    A1        1.93106   0.00060   0.00000   0.00437   0.00436   1.93542
    A2        1.93004   0.00073   0.00000   0.00523   0.00522   1.93525
    A3        1.93322  -0.00092   0.00000  -0.00704  -0.00704   1.92618
    A4        1.87062  -0.00021   0.00000   0.00125   0.00122   1.87184
    A5        1.89874  -0.00008   0.00000  -0.00186  -0.00185   1.89689
    A6        1.89863  -0.00011   0.00000  -0.00185  -0.00185   1.89678
    A7        2.33273  -0.00014   0.00000   0.00089   0.00088   2.33361
    A8        2.06200   0.00117   0.00000   0.00613   0.00611   2.06811
    A9        1.88846  -0.00104   0.00000  -0.00702  -0.00700   1.88146
   A10        2.01307   0.00044   0.00000   0.00220   0.00219   2.01526
   A11        2.14773  -0.00024   0.00000  -0.00124  -0.00124   2.14650
   A12        2.12238  -0.00020   0.00000  -0.00096  -0.00095   2.12143
   A13        2.01060   0.00091   0.00000   0.00484   0.00483   2.01543
   A14        2.12457  -0.00087   0.00000  -0.00501  -0.00501   2.11956
   A15        2.14802  -0.00004   0.00000   0.00017   0.00018   2.14820
   A16        2.27548  -0.00004   0.00000   0.00086   0.00084   2.27632
   A17        1.88404  -0.00176   0.00000  -0.00908  -0.00905   1.87499
   A18        2.12366   0.00180   0.00000   0.00822   0.00821   2.13187
   A19        2.11172   0.00126   0.00000   0.00467   0.00467   2.11639
   A20        1.99555  -0.00044   0.00000  -0.00150  -0.00150   1.99405
   A21        1.99555  -0.00047   0.00000  -0.00155  -0.00155   1.99400
   A22        2.07484  -0.00083   0.00000  -0.00298  -0.00298   2.07186
   A23        2.07484  -0.00081   0.00000  -0.00281  -0.00282   2.07203
   A24        1.93585   0.00014   0.00000   0.00155   0.00154   1.93739
   A25        1.91740   0.00042   0.00000   0.00136   0.00136   1.91876
   A26        1.93693   0.00001   0.00000   0.00064   0.00063   1.93757
   A27        1.89269  -0.00043   0.00000  -0.00379  -0.00379   1.88890
   A28        1.88708   0.00021   0.00000   0.00372   0.00372   1.89079
   A29        1.89267  -0.00038   0.00000  -0.00368  -0.00368   1.88899
   A30        1.62861   0.00145   0.00000   0.00906   0.00903   1.63764
   A31        1.91994   0.00085   0.00000   0.00829   0.00823   1.92817
   A32        1.91953   0.00089   0.00000   0.00873   0.00866   1.92819
   A33        1.92872   0.00057   0.00000   0.00521   0.00512   1.93384
   A34        1.92839   0.00061   0.00000   0.00560   0.00551   1.93390
   A35        2.08471  -0.00320   0.00000  -0.02759  -0.02755   2.05716
    D1        2.10903  -0.00030   0.00000  -0.00426  -0.00428   2.10476
    D2       -1.03256  -0.00030   0.00000  -0.00430  -0.00431  -1.03687
    D3       -2.10430   0.00028   0.00000   0.00336   0.00337  -2.10092
    D4        1.03730   0.00028   0.00000   0.00332   0.00334   1.04063
    D5        0.00196   0.00001   0.00000  -0.00016  -0.00016   0.00180
    D6       -3.13964   0.00001   0.00000  -0.00020  -0.00020  -3.13983
    D7        3.14159  -0.00001   0.00000  -0.00026  -0.00026   3.14133
    D8        0.00000  -0.00001   0.00000  -0.00028  -0.00028  -0.00028
    D9        0.00000  -0.00001   0.00000  -0.00023  -0.00023  -0.00023
   D10        3.14159  -0.00001   0.00000  -0.00024  -0.00024   3.14135
   D11        3.14159   0.00002   0.00000   0.00026   0.00026  -3.14133
   D12       -1.16525   0.00143   0.00000   0.01156   0.01160  -1.15364
   D13        1.16570  -0.00145   0.00000  -0.01155  -0.01160   1.15410
   D14        0.00000   0.00002   0.00000   0.00023   0.00023   0.00023
   D15        1.97634   0.00143   0.00000   0.01153   0.01158   1.98792
   D16       -1.97589  -0.00145   0.00000  -0.01158  -0.01163  -1.98752
   D17        0.00000   0.00000   0.00000   0.00010   0.00010   0.00010
   D18        3.14159   0.00001   0.00000  -0.00000  -0.00000   3.14159
   D19        3.14159  -0.00000   0.00000   0.00012   0.00012  -3.14148
   D20        0.00000   0.00000   0.00000   0.00002   0.00002   0.00002
   D21        3.14159   0.00001   0.00000  -0.00003  -0.00003   3.14156
   D22        0.00000   0.00001   0.00000   0.00008   0.00008   0.00008
   D23        0.00000   0.00001   0.00000   0.00007   0.00008   0.00008
   D24        3.14159   0.00001   0.00000   0.00019   0.00019  -3.14141
   D25        3.14159  -0.00000   0.00000  -0.00006  -0.00006   3.14153
   D26        0.47336   0.00029   0.00000   0.00046   0.00046   0.47383
   D27       -0.47336  -0.00028   0.00000  -0.00029  -0.00029  -0.47366
   D28        0.00000  -0.00001   0.00000  -0.00019  -0.00019  -0.00019
   D29       -2.66823   0.00028   0.00000   0.00034   0.00034  -2.66789
   D30        2.66823  -0.00028   0.00000  -0.00042  -0.00042   2.66781
   D31        0.00000  -0.00002   0.00000  -0.00018  -0.00018  -0.00018
   D32       -1.96872  -0.00168   0.00000  -0.01426  -0.01429  -1.98301
   D33        1.96819   0.00171   0.00000   0.01446   0.01450   1.98269
   D34        3.14159  -0.00001   0.00000  -0.00008  -0.00008   3.14151
   D35        1.17288  -0.00168   0.00000  -0.01416  -0.01419   1.15869
   D36       -1.17340   0.00171   0.00000   0.01456   0.01459  -1.15881
   D37       -1.04935  -0.00018   0.00000  -0.00289  -0.00289  -1.05224
   D38        3.14159  -0.00001   0.00000  -0.00004  -0.00004   3.14156
   D39        1.04869   0.00019   0.00000   0.00326   0.00326   1.05195
   D40        1.59800  -0.00034   0.00000  -0.00292  -0.00293   1.59507
   D41       -0.49424  -0.00017   0.00000  -0.00007  -0.00007  -0.49431
   D42       -2.58715   0.00002   0.00000   0.00323   0.00323  -2.58392
   D43        2.58649  -0.00001   0.00000  -0.00311  -0.00311   2.58338
   D44        0.49424   0.00016   0.00000  -0.00025  -0.00025   0.49400
   D45       -1.59866   0.00035   0.00000   0.00304   0.00305  -1.59561
         Item               Value     Threshold  Converged?
 Maximum Force            0.006313     0.000450     NO 
 RMS     Force            0.001152     0.000300     NO 
 Maximum Displacement     0.039265     0.001800     NO 
 RMS     Displacement     0.010733     0.001200     NO 
 Predicted change in Energy=-2.433990D-04
 Lowest energy point so far.  Saving SCF results.
 GradGradGradGradGradGradGradGradGradGradGradGradGradGradGradGradGradGrad

 Leave Link  103 at Thu Aug  2 19:50:37 2018, MaxMem=  1073741824 cpu:               0.5 elap:               0.1
 (Enter /shared/apps/gaussian/gaussian-16/g16/l202.exe)
                          Input orientation:                          
 ---------------------------------------------------------------------
 Center     Atomic      Atomic             Coordinates (Angstroms)
 Number     Number       Type             X           Y           Z
 ---------------------------------------------------------------------
      1          6           0       -3.431978    0.300464    0.000298
      2          6           0       -1.996889    0.655819    0.000013
      3          6           0       -1.332517    1.815949   -0.000135
      4          6           0        0.134879    1.704774   -0.000070
      5          6           0        0.619502    0.451637    0.000006
      6          6           0        2.000747   -0.031549    0.000053
      7          6           0        2.311236   -1.494872    0.000216
      8          7           0        2.967741    0.898014    0.613670
      9          7           0        2.967749    0.898108   -0.613454
     10         16           0       -0.786505   -0.669639   -0.000142
     11          8           0       -0.851354   -1.423520    1.255579
     12          8           0       -0.851367   -1.423205   -1.255874
     13          1           0       -3.686602   -0.300158   -0.882249
     14          1           0       -3.686912   -0.296853    0.885042
     15          1           0       -4.047322    1.203539   -0.001438
     16          1           0       -1.829078    2.781474   -0.000306
     17          1           0        0.769883    2.586057   -0.000177
     18          1           0        1.896778   -1.984249    0.888799
     19          1           0        3.393410   -1.646137    0.000191
     20          1           0        1.896598   -1.984656   -0.888021
 ---------------------------------------------------------------------
                    Distance matrix (angstroms):
                    1          2          3          4          5
     1  C    0.000000
     2  C    1.478430   0.000000
     3  C    2.589291   1.336897   0.000000
     4  C    3.833347   2.375867   1.471602   0.000000
     5  C    4.054299   2.624346   2.381538   1.343581   0.000000
     6  C    5.442860   4.056300   3.811023   2.548780   1.463320
     7  C    6.017287   4.815123   4.923259   3.869660   2.578927
     8  N    6.456756   5.008272   4.439773   3.008762   2.467806
     9  N    6.456808   5.008261   4.439694   3.008672   2.467779
    10  S    2.817734   1.794956   2.544853   2.546916   1.798364
    11  O    3.347756   2.685581   3.507491   3.512198   2.693714
    12  O    3.347918   2.685481   3.507208   3.511976   2.693645
    13  H    1.097483   2.132465   3.285993   4.404737   4.459384
    14  H    1.097521   2.132379   3.284912   4.404091   4.459678
    15  H    1.092793   2.122328   2.783022   4.212130   4.727007
    16  H    2.953760   2.132269   1.085731   2.239734   3.379894
    17  H    4.783260   3.373552   2.239008   1.086228   2.139711
    18  H    5.865576   4.787540   5.065576   4.183691   2.890490
    19  H    7.097547   5.861256   5.858364   4.674038   3.477819
    20  H    5.865543   4.787478   5.065582   4.183779   2.890517
                    6          7          8          9         10
     6  C    0.000000
     7  C    1.495901   0.000000
[...]
    18  H    2.147912   1.095778   3.086963   3.422145   3.117583
    19  H    2.131503   1.092806   2.651308   2.651258   4.291389
    20  H    2.147900   1.095780   3.422187   3.087101   3.117266
                   11         12         13         14         15
    11  O    0.000000
    12  O    2.514715   0.000000
    13  H    3.727957   3.075062   0.000000
    14  H    3.075838   3.729805   1.768058   0.000000
    15  H    4.323986   4.323454   1.779573   1.779564   0.000000
    16  H    4.497942   4.497939   3.703653   3.702478   2.717720
    17  H    4.505862   4.505856   5.380443   5.379832   5.004731
    18  H    2.829717   3.532344   6.097756   5.835469   6.801920
    19  H    4.432784   4.432731   7.261893   7.262762   7.964044
    20  H    3.531897   2.829495   5.834375   6.098726   6.801425
                   16         17         18         19         20
    16  H    0.000000
    17  H    2.602815   0.000000
    18  H    6.113889   4.791777   0.000000
    19  H    6.844222   4.979276   1.772818   0.000000
    20  H    6.113746   4.791754   1.777222   1.772817   0.000000
 Stoichiometry    C7H8N2O2S
 Framework group  C1[X(C7H8N2O2S)]
 Deg. of freedom    54
 Full point group                 C1      NOp   1
 RotChk:  IX=0 Diff= 5.29D-16
 Largest Abelian subgroup         C1      NOp   1
 Largest concise Abelian subgroup C1      NOp   1
                         Standard orientation:                         
 ---------------------------------------------------------------------
 Center     Atomic      Atomic             Coordinates (Angstroms)
 Number     Number       Type             X           Y           Z
 ---------------------------------------------------------------------
      1          6           0       -3.429924    0.298296    0.000147
      2          6           0       -1.995264    0.653892   -0.000077
      3          6           0       -1.332737    1.815280   -0.000184
      4          6           0        0.134054    1.706191   -0.000174
      5          6           0        0.619226    0.453317   -0.000043
      6          6           0        2.001238   -0.027135    0.000006
      7          6           0        2.314607   -1.489381    0.000196
      8          7           0        2.965223    0.905053    0.613605
      9          7           0        2.965191    0.904918   -0.613846
     10         16           0       -0.783427   -0.669497    0.000019
     11          8           0       -0.848082   -1.424772    1.257439
     12          8           0       -0.848062   -1.424978   -1.257276
     13          1           0       -3.685514   -0.300293   -0.883166
     14          1           0       -3.685779   -0.298067    0.884891
     15          1           0       -4.042684    1.203443   -0.001073
     16          1           0       -1.829518    2.780751   -0.000277
     17          1           0        0.766266    2.589565   -0.000245
     18          1           0        1.902062   -1.979946    0.888949
     19          1           0        3.397283   -1.637838    0.000039
     20          1           0        1.901771   -1.980220   -0.888273
 ---------------------------------------------------------------------
 Rotational constants (GHZ):           1.6718669           0.6756731           0.5483308
 Leave Link  202 at Thu Aug  2 19:54:36 2018, MaxMem=  1073741824 cpu:               0.1 elap:               0.0
 (Enter /shared/apps/gaussian/gaussian-16/g16/l601.exe)
 Copying SCF densities to generalized density rwf, IOpCl= 0 IROHF=0.

 **********************************************************************

            Population analysis using the SCF density.

 **********************************************************************

 Orbital symmetries:
       Occupied  (A) (A) (A) (A) (A) (A) (A) (A) (A) (A) (A) (A)
                 (A) (A) (A) (A) (A) (A) (A) (A) (A) (A) (A) (A)
                 (A) (A) (A) (A) (A) (A) (A) (A) (A) (A) (A) (A)
                 (A) (A) (A) (A) (A) (A) (A) (A) (A) (A) (A) (A)
       Virtual   (A) (A) (A) (A) (A) (A) (A) (A) (A) (A) (A) (A)
                 (A) (A) (A) (A) (A) (A) (A) (A) (A) (A) (A) (A)
                 (A) (A) (A) (A) (A) (A) (A) (A) (A) (A) (A) (A)
                 (A) (A) (A) (A) (A) (A) (A) (A) (A) (A) (A) (A)
                 (A) (A) (A) (A) (A) (A) (A) (A) (A) (A) (A) (A)
                 (A) (A) (A) (A) (A) (A) (A) (A) (A) (A) (A) (A)
                 (A) (A) (A) (A) (A) (A) (A) (A) (A) (A) (A) (A)
                 (A) (A) (A) (A) (A) (A) (A) (A) (A) (A) (A) (A)
                 (A) (A) (A) (A) (A) (A) (A) (A) (A) (A) (A) (A)
                 (A) (A) (A) (A) (A) (A) (A) (A) (A) (A) (A) (A)
                 (A) (A) (A) (A) (A) (A) (A) (A) (A) (A) (A) (A)
                 (A) (A) (A) (A) (A) (A) (A) (A) (A) (A) (A) (A)
                 (A) (A) (A) (A) (A) (A) (A) (A) (A) (A) (A) (A)
                 (A) (A) (A) (A) (A) (A) (A) (A) (A) (A) (A) (A)
                 (A) (A) (A) (A) (A) (A) (A) (A) (A) (A) (A) (A)
                 (A) (A) (A) (A) (A) (A) (A) (A) (A) (A) (A) (A)
                 (A) (A) (A) (A) (A) (A) (A) (A) (A) (A) (A) (A)
                 (A) (A) (A) (A) (A) (A) (A) (A) (A) (A) (A) (A)
                 (A) (A) (A) (A) (A) (A) (A) (A)
 The electronic state is 1-A.
 Alpha  occ. eigenvalues --  -89.29733 -19.26254 -19.26253 -14.52704 -14.52639
 Alpha  occ. eigenvalues --  -10.36428 -10.32227 -10.32117 -10.31476 -10.30714
 Alpha  occ. eigenvalues --  -10.27951 -10.27103  -8.26845  -6.18595  -6.18509
 Alpha  occ. eigenvalues --   -6.18444  -1.18249  -1.15760  -1.05454  -0.91490
 Alpha  occ. eigenvalues --   -0.83264  -0.78874  -0.74216  -0.72516  -0.66296
 Alpha  occ. eigenvalues --   -0.65565  -0.61111  -0.58528  -0.56230  -0.51463
 Alpha  occ. eigenvalues --   -0.50275  -0.50113  -0.48352  -0.47034  -0.45047
 Alpha  occ. eigenvalues --   -0.44705  -0.44279  -0.43301  -0.41879  -0.40967
 Alpha  occ. eigenvalues --   -0.39418  -0.39151  -0.36915  -0.36847  -0.34144
 Alpha  occ. eigenvalues --   -0.32626  -0.31924  -0.25890
 Alpha virt. eigenvalues --   -0.09260  -0.07979  -0.02159  -0.01507  -0.01128
 Alpha virt. eigenvalues --   -0.00216   0.00316   0.00571   0.00903   0.01399
 Alpha virt. eigenvalues --    0.01959   0.02478   0.03330   0.03992   0.04378
 Alpha virt. eigenvalues --    0.05163   0.05477   0.05742   0.06605   0.07008
 Alpha virt. eigenvalues --    0.07338   0.08242   0.09608   0.09864   0.10686
 Alpha virt. eigenvalues --    0.10843   0.11344   0.12299   0.12431   0.12866
 Alpha virt. eigenvalues --    0.13075   0.14530   0.15086   0.15427   0.16408
 Alpha virt. eigenvalues --    0.16418   0.17066   0.17472   0.18008   0.18628
 Alpha virt. eigenvalues --    0.19127   0.19499   0.19679   0.20321   0.20944
 Alpha virt. eigenvalues --    0.21372   0.21986   0.22220   0.22904   0.23128
 Alpha virt. eigenvalues --    0.24474   0.25390   0.25575   0.26294   0.26641
 Alpha virt. eigenvalues --    0.27463   0.28709   0.29062   0.29478   0.29841
 Alpha virt. eigenvalues --    0.31386   0.32054   0.33682   0.35090   0.35206
 Alpha virt. eigenvalues --    0.35695   0.36940   0.39060   0.39902   0.41306
 Alpha virt. eigenvalues --    0.41765   0.48822   0.52193   0.54810   0.59092
 Alpha virt. eigenvalues --    0.59386   0.59934   0.63709   0.64778   0.65399
 Alpha virt. eigenvalues --    0.66500   0.66930   0.69063   0.69670   0.72108
 Alpha virt. eigenvalues --    0.73668   0.74340   0.74478   0.77064   0.77889
 Alpha virt. eigenvalues --    0.79729   0.81668   0.82574   0.84699   0.84871
 Alpha virt. eigenvalues --    0.86953   0.89851   0.90571   0.92463   0.93353
 Alpha virt. eigenvalues --    0.93947   0.94511   0.95627   0.97527   0.97627
 Alpha virt. eigenvalues --    0.98342   1.01672   1.01891   1.04385   1.06508
 Alpha virt. eigenvalues --    1.08238   1.09143   1.10185   1.10556   1.12741
 Alpha virt. eigenvalues --    1.14628   1.18577   1.19715   1.22158   1.24932
 Alpha virt. eigenvalues --    1.26916   1.27227   1.27336   1.27897   1.31487
 Alpha virt. eigenvalues --    1.34623   1.36152   1.36292   1.37939   1.42404
 Alpha virt. eigenvalues --    1.43979   1.44626   1.47084   1.49925   1.53224
 Alpha virt. eigenvalues --    1.53444   1.56184   1.57228   1.64857   1.68242
 Alpha virt. eigenvalues --    1.69082   1.73782   1.75210   1.76274   1.77359
 Alpha virt. eigenvalues --    1.79633   1.80784   1.81687   1.82311   1.83083
 Alpha virt. eigenvalues --    1.85783   1.86691   1.89645   1.92279   1.94558
 Alpha virt. eigenvalues --    1.95120   1.97950   2.00472   2.00576   2.02198
 Alpha virt. eigenvalues --    2.03077   2.04600   2.06298   2.06767   2.09384
 Alpha virt. eigenvalues --    2.09797   2.12058   2.15963   2.16057   2.17145
 Alpha virt. eigenvalues --    2.20598   2.21002   2.27393   2.29234   2.32232
 Alpha virt. eigenvalues --    2.33749   2.34520   2.37282   2.42098   2.42226
 Alpha virt. eigenvalues --    2.45451   2.47914   2.48831   2.51983   2.53869
 Alpha virt. eigenvalues --    2.54766   2.58554   2.61234   2.63909   2.68736
 Alpha virt. eigenvalues --    2.71787   2.72622   2.76052   2.78008   2.81367
 Alpha virt. eigenvalues --    2.85417   2.86919   2.88980   2.89569   2.91490
 Alpha virt. eigenvalues --    2.97290   2.97301   3.04458   3.15966   3.23933
 Alpha virt. eigenvalues --    3.26247   3.28471   3.37898   3.40738   3.40806
 Alpha virt. eigenvalues --    3.43655   3.55616   3.93324   3.95666   4.12386
 Alpha virt. eigenvalues --    4.15751   4.22999   4.27308   4.31553   4.39570
 Alpha virt. eigenvalues --    4.43435   4.54135   4.59999   4.67252
          Condensed to atoms (all electrons):
               1          2          3          4          5          6
     1  C    7.962550  -1.312335  -1.501300   0.541506   0.144529  -0.958826
     2  C   -1.312335   8.835516  -1.441914   1.480299   1.097691  -1.770210
     3  C   -1.501300  -1.441914  10.824960  -3.928538  -0.836179   3.008199
     4  C    0.541506   1.480299  -3.928538  14.703241  -8.893744   1.415487
     5  C    0.144529   1.097691  -0.836179  -8.893744  34.731487 -16.793074
     6  C   -0.958826  -1.770210   3.008199   1.415487 -16.793074  20.541087
     7  C   -0.024822  -0.100243  -0.047270   0.883319  -3.543481   1.100916
     8  N   -0.005724  -0.042258   0.094066   0.049945  -0.257674   0.478695
     9  N   -0.005723  -0.042203   0.093984   0.050218  -0.257750   0.478452
    10  S    0.270881  -0.194560  -0.138599  -1.135413   1.226966  -0.943087
    11  O   -0.084504  -0.085179   0.008107   0.114214   0.016336  -0.159084
    12  O   -0.084691  -0.085043   0.007712   0.114436   0.016038  -0.158793
    13  H    0.421024  -0.060902  -0.030410   0.005477  -0.005941  -0.002268
    14  H    0.421455  -0.061291  -0.030269   0.005440  -0.005952  -0.002261
    15  H    0.527401  -0.200713   0.022926   0.006504  -0.009580  -0.000514
    16  H   -0.017620   0.118852   0.147224   0.073968  -0.026825   0.003133
    17  H    0.002216  -0.032475   0.050243   0.046341   0.277841  -0.068950
    18  H    0.000148   0.003407   0.000516  -0.012859   0.070774  -0.059719
    19  H    0.000208   0.000965  -0.000521  -0.003191   0.041849  -0.130252
    20  H    0.000145   0.003398   0.000526  -0.012892   0.070774  -0.059672
               7          8          9         10         11         12
     1  C   -0.024822  -0.005724  -0.005723   0.270881  -0.084504  -0.084691
     2  C   -0.100243  -0.042258  -0.042203  -0.194560  -0.085179  -0.085043
     3  C   -0.047270   0.094066   0.093984  -0.138599   0.008107   0.007712
     4  C    0.883319   0.049945   0.050218  -1.135413   0.114214   0.114436
     5  C   -3.543481  -0.257674  -0.257750   1.226966   0.016336   0.016038
     6  C    1.100916   0.478695   0.478452  -0.943087  -0.159084  -0.158793
     7  C    7.375145  -0.201110  -0.200997  -0.211385  -0.006891  -0.006947
     8  N   -0.201110   6.440719   0.408189   0.001202  -0.001983   0.001514
     9  N   -0.200997   0.408189   6.440702   0.001187   0.001513  -0.001985
    10  S   -0.211385   0.001202   0.001187  15.642975   0.273838   0.274161
    11  O   -0.006891  -0.001983   0.001513   0.273838   8.728757  -0.240324
    12  O   -0.006947   0.001514  -0.001985   0.274161  -0.240324   8.728726
    13  H    0.000281  -0.000008   0.000012   0.018336  -0.002576   0.007350
    14  H    0.000278   0.000012  -0.000008   0.018206   0.007331  -0.002566
    15  H   -0.000070  -0.000004  -0.000004   0.011458  -0.000240  -0.000239
    16  H    0.000125   0.000039   0.000039   0.019763  -0.000629  -0.000629
    17  H    0.007880   0.001337   0.001337   0.028795  -0.000436  -0.000436
    18  H    0.336792  -0.010580   0.012013   0.014282  -0.002790  -0.001159
    19  H    0.453867   0.000110   0.000107  -0.001142   0.000225   0.000225
    20  H    0.336761   0.012012  -0.010578   0.014298  -0.001163  -0.002785
              13         14         15         16         17         18
     1  C    0.421024   0.421455   0.527401  -0.017620   0.002216   0.000148
     2  C   -0.060902  -0.061291  -0.200713   0.118852  -0.032475   0.003407
     3  C   -0.030410  -0.030269   0.022926   0.147224   0.050243   0.000516
     4  C    0.005477   0.005440   0.006504   0.073968   0.046341  -0.012859
     5  C   -0.005941  -0.005952  -0.009580  -0.026825   0.277841   0.070774
     6  C   -0.002268  -0.002261  -0.000514   0.003133  -0.068950  -0.059719
     7  C    0.000281   0.000278  -0.000070   0.000125   0.007880   0.336792
     8  N   -0.000008   0.000012  -0.000004   0.000039   0.001337  -0.010580
     9  N    0.000012  -0.000008  -0.000004   0.000039   0.001337   0.012013
    10  S    0.018336   0.018206   0.011458   0.019763   0.028795   0.014282
    11  O   -0.002576   0.007331  -0.000240  -0.000629  -0.000436  -0.002790
    12  O    0.007350  -0.002566  -0.000239  -0.000629  -0.000436  -0.001159
    13  H    0.492886  -0.025921  -0.020330   0.000053   0.000002  -0.000000
    14  H   -0.025921   0.492816  -0.020326   0.000053   0.000002   0.000000
    15  H   -0.020330  -0.020326   0.480869   0.001020   0.000000   0.000000
    16  H    0.000053   0.000053   0.001020   0.477944  -0.003018   0.000000
    17  H    0.000002   0.000002   0.000000  -0.003018   0.483223  -0.000002
    18  H   -0.000000   0.000000   0.000000   0.000000  -0.000002   0.494226
    19  H    0.000000   0.000000  -0.000000  -0.000000   0.000001  -0.020255
    20  H    0.000000  -0.000000   0.000000   0.000000  -0.000002  -0.025155
              19         20
     1  C    0.000208   0.000145
     2  C    0.000965   0.003398
     3  C   -0.000521   0.000526
     4  C   -0.003191  -0.012892
     5  C    0.041849   0.070774
     6  C   -0.130252  -0.059672
     7  C    0.453867   0.336761
     8  N    0.000110   0.012012
     9  N    0.000107  -0.010578
    10  S   -0.001142   0.014298
    11  O    0.000225  -0.001163
    12  O    0.000225  -0.002785
    13  H    0.000000   0.000000
    14  H    0.000000  -0.000000
    15  H   -0.000000   0.000000
    16  H   -0.000000   0.000000
    17  H    0.000001  -0.000002
    18  H   -0.020255  -0.025155
    19  H    0.490865  -0.020254
    20  H   -0.020254   0.494243
 Mulliken charges:
               1
     1  C   -0.296518
     2  C   -0.110803
     3  C   -0.303462
     4  C    0.496242
     5  C   -1.064087
     6  C    0.080739
     7  C   -0.152146
     8  N    0.031502
     9  N    0.031495
    10  S    0.807837
    11  O   -0.564521
    12  O   -0.564564
    13  H    0.202935
    14  H    0.203003
    15  H    0.201842
    16  H    0.206508
    17  H    0.206103
    18  H    0.200359
    19  H    0.187193
    20  H    0.200343
 Sum of Mulliken charges =  -0.00000
 Mulliken charges with hydrogens summed into heavy atoms:
               1
     1  C    0.311262
     2  C   -0.110803
     3  C   -0.096954
     4  C    0.702345
     5  C   -1.064087
     6  C    0.080739
     7  C    0.435749
     8  N    0.031502
     9  N    0.031495
    10  S    0.807837
    11  O   -0.564521
    12  O   -0.564564
 Electronic spatial extent (au):  <R**2>=           2100.3920
 Charge=             -0.0000 electrons
 Dipole moment (field-independent basis, Debye):
    X=             -1.7735    Y=              4.6351    Z=              0.0001  Tot=              4.9628
 Quadrupole moment (field-independent basis, Debye-Ang):
   XX=            -67.3238   YY=            -74.4558   ZZ=            -86.4059
   XY=            -12.4005   XZ=              0.0002   YZ=             -0.0011
 Traceless Quadrupole moment (field-independent basis, Debye-Ang):
   XX=              8.7381   YY=              1.6060   ZZ=            -10.3441
   XY=            -12.4005   XZ=              0.0002   YZ=             -0.0011
 Octapole moment (field-independent basis, Debye-Ang**2):
  XXX=            -55.3291  YYY=             24.0459  ZZZ=              0.0049  XYY=             -0.6178
  XXY=            -11.6641  XXZ=              0.0045  XZZ=             -1.6576  YZZ=              1.2483
  YYZ=             -0.0044  XYZ=             -0.0001
 Hexadecapole moment (field-independent basis, Debye-Ang**3):
 XXXX=          -1746.6529 YYYY=           -644.1101 ZZZZ=           -247.9470 XXXY=            -81.2785
 XXXZ=              0.0074 YYYX=            -34.0272 YYYZ=              0.0099 ZZZX=              0.0025
 ZZZY=              0.0242 XXYY=           -409.9445 XXZZ=           -374.8495 YYZZ=           -175.0818
 XXYZ=             -0.0004 YYXZ=              0.0150 ZZXY=            -11.8975
 N-N= 8.335570291873D+02 E-N=-3.847415276025D+03  KE= 9.223120486331D+02
 No NMR shielding tensors so no spin-rotation constants.
 Leave Link  601 at Thu Aug  2 19:54:36 2018, MaxMem=  1073741824 cpu:               2.8 elap:               0.2
 (Enter /shared/apps/gaussian/gaussian-16/g16/l9999.exe)
 1\1\GINC-COMPUTE-0-156\FOpt\RM06\6-31+G(d,p)\C7H8N2O2S1\ROOT\02-Aug-20
 18\0\\#p M06/6-31+G(d,p) SCRF=(Solvent=Acetonitrile) opt\\ADNOQZQZUQQV
 RY-UHFFFAOYSA-N_S0_solv\\0,1\C,-3.4310708234,0.300556204,0.000214458\C
 ,-1.9959597107,0.6543273675,-0.00000959\C,-1.3319554765,1.8148714091,-
 0.0001170507\C,0.134695897,1.7039164827,-0.000106439\C,0.6182733155,0.
 4504265016,0.000024442\C,1.9996730168,-0.0317831967,0.0000726793\C,2.3
 111820618,-1.494426535,0.0002628666\N,2.9648427881,0.8991774791,0.6136
 721392\N,2.9648105797,0.8990430262,-0.6137792812\S,-0.7858067819,-0.67
 06020423,0.0000863801\O,-0.8514226249,-1.4257941307,1.2575064887\O,-0.
 851403293,-1.4260003509,-1.2572087137\H,-3.6874214632,-0.2977063686,-0
 .8830992228\H,-3.6876840903,-0.2954802462,0.8849578226\H,-4.0426787828
 ,1.2064826959,-0.001006364\H,-1.8275076644,2.7809733681,-0.0002096283\
 H,0.7680309061,2.5864859389,-0.0001775302\H,1.8980129772,-1.984466472,
 0.8890161245\H,3.3936679293,-1.6442608873,0.000106078\H,1.8977212396,-
 1.9847402435,-0.8882056591\\Version=EM64L-G16RevA.03\State=1-A\HF=-929
 .2087544\RMSD=4.063e-09\RMSF=2.674e-05\Dipole=-0.695447,1.8244763,0.00
 00268\Quadrupole=6.473067,1.2175056,-7.6905726,-9.2261682,0.0001474,-0
 .0008487\PG=C01 [X(C7H8N2O2S1)]\\@


 THE MORE PROGRESS PHYSICAL SCIENCES MAKE, THE MORE THEY TEND TO ENTER
 THE DOMAIN OF MATHEMATICS, WHICH IS A KIND OF CENTRE TO WHICH THEY ALL
 CONVERGE.  WE MAY EVEN JUDGE THE DEGREE OF PERFECTION TO WHICH A 
 SCIENCE HAS ARRIVED BY THE FACILITY WITH WHICH IT MAY BE SUBMITTED
 TO CALCULATION.

                               -- ADOLPHE QUETELET, 1796-1874
 Job cpu time:       0 days  1 hours 33 minutes 32.0 seconds.
 Elapsed time:       0 days  0 hours  5 minutes 56.9 seconds.
 File lengths (MBytes):  RWF=    320 Int=      0 D2E=      0 Chk=     32 Scr=     32
 Normal termination of Gaussian 16 at Thu Aug  2 19:54:36 2018.
