 Entering Gaussian System, Link 0=g16
 Input=ADNOQZQZUQQVRY-UHFFFAOYSA-N_cat-rad_solv.com
 Output=ADNOQZQZUQQVRY-UHFFFAOYSA-N_cat-rad_solv.log
 Initial command:
 /shared/apps/gaussian/gaussian-16/g16/l1.exe "/gss_gpfs_scratch/abreha.b/diazirines1_231_4_2018-08-02/cat-rad_dft-opt_solv/Gau-36458.inp" -scrdir="/gss_gpfs_scratch/abreha.b/diazirines1_231_4_2018-08-02/cat-rad_dft-opt_solv/"
 Entering Link 1 = /shared/apps/gaussian/gaussian-16/g16/l1.exe PID=     36459.
  
 Copyright (c) 1988,1990,1992,1993,1995,1998,2003,2009,2016,
            Gaussian, Inc.  All Rights Reserved.
  
 This is part of the Gaussian(R) 16 program.  It is based on
 the Gaussian(R) 09 system (copyright 2009, Gaussian, Inc.),
 the Gaussian(R) 03 system (copyright 2003, Gaussian, Inc.),
 the Gaussian(R) 98 system (copyright 1998, Gaussian, Inc.),
 the Gaussian(R) 94 system (copyright 1995, Gaussian, Inc.),
 the Gaussian 92(TM) system (copyright 1992, Gaussian, Inc.),
 the Gaussian 90(TM) system (copyright 1990, Gaussian, Inc.),
 the Gaussian 88(TM) system (copyright 1988, Gaussian, Inc.),
 the Gaussian 86(TM) system (copyright 1986, Carnegie Mellon
 University), and the Gaussian 82(TM) system (copyright 1983,
 Carnegie Mellon University). Gaussian is a federally registered
 trademark of Gaussian, Inc.
  
 This software contains proprietary and confidential information,
 including trade secrets, belonging to Gaussian, Inc.
  
 This software is provided under written license and may be
 used, copied, transmitted, or stored only in accord with that
 written license.
  
 The following legend is applicable only to US Government
 contracts under FAR:
  
                    RESTRICTED RIGHTS LEGEND
  
 Use, reproduction and disclosure by the US Government is
 subject to restrictions as set forth in subparagraphs (a)
 and (c) of the Commercial Computer Software - Restricted
 Rights clause in FAR 52.227-19.
  
 Gaussian, Inc.
 340 Quinnipiac St., Bldg. 40, Wallingford CT 06492
  
  
 ---------------------------------------------------------------
 Warning -- This program may not be used in any manner that
 competes with the business of Gaussian, Inc. or will provide
 assistance to any competitor of Gaussian, Inc.  The licensee
 of this program is prohibited from giving any competitor of
 Gaussian, Inc. access to this program.  By using this program,
 the user acknowledges that Gaussian, Inc. is engaged in the
 business of creating and licensing software in the field of
 computational chemistry and represents and warrants to the
 licensee that it is not a competitor of Gaussian, Inc. and that
 it will not use this program in any manner prohibited above.
 ---------------------------------------------------------------
  

 Cite this work as:
 Gaussian 16, Revision A.03,
 M. J. Frisch, G. W. Trucks, H. B. Schlegel, G. E. Scuseria, 
 M. A. Robb, J. R. Cheeseman, G. Scalmani, V. Barone, 
 G. A. Petersson, H. Nakatsuji, X. Li, M. Caricato, A. V. Marenich, 
 J. Bloino, B. G. Janesko, R. Gomperts, B. Mennucci, H. P. Hratchian, 
 J. V. Ortiz, A. F. Izmaylov, J. L. Sonnenberg, D. Williams-Young, 
 F. Ding, F. Lipparini, F. Egidi, J. Goings, B. Peng, A. Petrone, 
 T. Henderson, D. Ranasinghe, V. G. Zakrzewski, J. Gao, N. Rega, 
 G. Zheng, W. Liang, M. Hada, M. Ehara, K. Toyota, R. Fukuda, 
 J. Hasegawa, M. Ishida, T. Nakajima, Y. Honda, O. Kitao, H. Nakai, 
 T. Vreven, K. Throssell, J. A. Montgomery, Jr., J. E. Peralta, 
 F. Ogliaro, M. J. Bearpark, J. J. Heyd, E. N. Brothers, K. N. Kudin, 
 V. N. Staroverov, T. A. Keith, R. Kobayashi, J. Normand, 
 K. Raghavachari, A. P. Rendell, J. C. Burant, S. S. Iyengar, 
 J. Tomasi, M. Cossi, J. M. Millam, M. Klene, C. Adamo, R. Cammi, 
 J. W. Ochterski, R. L. Martin, K. Morokuma, O. Farkas, 
 J. B. Foresman, and D. J. Fox, Gaussian, Inc., Wallingford CT, 2016.
 
 ******************************************
 Gaussian 16:  EM64L-G16RevA.03 25-Dec-2016
                 3-Aug-2018 
 ******************************************
 %rwf=ADNOQZQZUQQVRY-UHFFFAOYSA-N_cat-rad_solv.rwf
 %NoSave
 %chk=ADNOQZQZUQQVRY-UHFFFAOYSA-N_cat-rad_solv.chk
 %mem=8GB
 %nproc=16
 Will use up to   16 processors via shared memory.
 --------------------------------------------------
 #p M06/6-31+G(d,p) SCRF=(Solvent=Acetonitrile) opt
 --------------------------------------------------
 1/18=20,19=15,26=3,38=1/1,3;
 2/9=110,12=2,17=6,18=5,40=1/2;
 3/5=1,6=6,7=111,11=2,25=1,30=1,70=2201,71=1,72=2,74=-54/1,2,3;
 4//1;
 5/5=2,38=5,53=2/2;
 6/7=2,8=2,9=2,10=2,28=1/1;
 7//1,2,3,16;
 1/18=20,19=15,26=3/3(2);
 2/9=110/2;
 99//99;
 2/9=110/2;
 3/5=1,6=6,7=111,11=2,25=1,30=1,70=2205,71=1,72=2,74=-54/1,2,3;
 4/5=5,16=3,69=1/1;
 5/5=2,38=5,53=2/2;
 7//1,2,3,16;
 1/18=20,19=15,26=3/3(-5);
 2/9=110/2;
 6/7=2,8=2,9=2,10=2,19=2,28=1/1;
 99/9=1/99;
 Leave Link    1 at Fri Aug  3 03:21:06 2018, MaxMem=  1073741824 cpu:              28.4 elap:               1.9
 (Enter /shared/apps/gaussian/gaussian-16/g16/l101.exe)
 ----------------------------------------
 ADNOQZQZUQQVRY-UHFFFAOYSA-N_cat-rad_solv
 ----------------------------------------
 Symbolic Z-matrix:
 Charge =  1 Multiplicity = 2
 C                    -3.422     0.294     0. 
 C                    -1.989     0.654     0. 
 C                    -1.329     1.818     0. 
 C                     0.137     1.71      0. 
 C                     0.618     0.456     0. 
 C                     1.996    -0.029     0. 
 C                     2.297    -1.495     0. 
 N                     2.967     0.898     0.613 
 N                     2.967     0.898    -0.613 
 S                    -0.782    -0.675     0. 
 O                    -0.847    -1.41      1.263 
 O                    -0.847    -1.409    -1.263 
 H                    -3.669    -0.311    -0.882 
 H                    -3.669    -0.307     0.885 
 H                    -4.047     1.191    -0.002 
 H                    -1.829     2.783     0. 
 H                     0.775     2.59      0. 
 H                     1.876    -1.981     0.888 
 H                     3.379    -1.652     0. 
 H                     1.876    -1.982    -0.887 
 
 ITRead=  0  0  0  0  0  0  0  0  0  0  0  0  0  0  0  0  0  0  0  0
 MicOpt= -1 -1 -1 -1 -1 -1 -1 -1 -1 -1 -1 -1 -1 -1 -1 -1 -1 -1 -1 -1
 NAtoms=     20 NQM=       20 NQMF=       0 NMMI=      0 NMMIF=      0
                NMic=       0 NMicF=      0.
                    Isotopes and Nuclear Properties:
 (Nuclear quadrupole moments (NQMom) in fm**2, nuclear magnetic moments (NMagM)
  in nuclear magnetons)

  Atom         1           2           3           4           5           6           7           8           9          10
 IAtWgt=          12          12          12          12          12          12          12          14          14          32
 AtmWgt=  12.0000000  12.0000000  12.0000000  12.0000000  12.0000000  12.0000000  12.0000000  14.0030740  14.0030740  31.9720718
 NucSpn=           0           0           0           0           0           0           0           2           2           0
 AtZEff=  -0.0000000  -0.0000000  -0.0000000  -0.0000000  -0.0000000  -0.0000000  -0.0000000  -0.0000000  -0.0000000  -0.0000000
 NQMom=    0.0000000   0.0000000   0.0000000   0.0000000   0.0000000   0.0000000   0.0000000   2.0440000   2.0440000   0.0000000
 NMagM=    0.0000000   0.0000000   0.0000000   0.0000000   0.0000000   0.0000000   0.0000000   0.4037610   0.4037610   0.0000000
 AtZNuc=   6.0000000   6.0000000   6.0000000   6.0000000   6.0000000   6.0000000   6.0000000   7.0000000   7.0000000  16.0000000

  Atom        11          12          13          14          15          16          17          18          19          20
 IAtWgt=          16          16           1           1           1           1           1           1           1           1
 AtmWgt=  15.9949146  15.9949146   1.0078250   1.0078250   1.0078250   1.0078250   1.0078250   1.0078250   1.0078250   1.0078250
 NucSpn=           0           0           1           1           1           1           1           1           1           1
 AtZEff=  -0.0000000  -0.0000000  -0.0000000  -0.0000000  -0.0000000  -0.0000000  -0.0000000  -0.0000000  -0.0000000  -0.0000000
 NQMom=    0.0000000   0.0000000   0.0000000   0.0000000   0.0000000   0.0000000   0.0000000   0.0000000   0.0000000   0.0000000
 NMagM=    0.0000000   0.0000000   2.7928460   2.7928460   2.7928460   2.7928460   2.7928460   2.7928460   2.7928460   2.7928460
 AtZNuc=   8.0000000   8.0000000   1.0000000   1.0000000   1.0000000   1.0000000   1.0000000   1.0000000   1.0000000   1.0000000
 Leave Link  101 at Fri Aug  3 03:21:06 2018, MaxMem=  1073741824 cpu:               5.8 elap:               0.4
 (Enter /shared/apps/gaussian/gaussian-16/g16/l103.exe)

 GradGradGradGradGradGradGradGradGradGradGradGradGradGradGradGradGradGrad
 Berny optimization.
 Initialization pass.
                           ----------------------------
                           !    Initial Parameters    !
                           ! (Angstroms and Degrees)  !
 --------------------------                            --------------------------
 ! Name  Definition              Value          Derivative Info.                !
 --------------------------------------------------------------------------------
 ! R1    R(1,2)                  1.4775         estimate D2E/DX2                !
 ! R2    R(1,13)                 1.0977         estimate D2E/DX2                !
 ! R3    R(1,14)                 1.0979         estimate D2E/DX2                !
 ! R4    R(1,15)                 1.0933         estimate D2E/DX2                !
 ! R5    R(2,3)                  1.3381         estimate D2E/DX2                !
 ! R6    R(2,10)                 1.7953         estimate D2E/DX2                !
 ! R7    R(3,4)                  1.47           estimate D2E/DX2                !
 ! R8    R(3,16)                 1.0868         estimate D2E/DX2                !
 ! R9    R(4,5)                  1.3431         estimate D2E/DX2                !
 ! R10   R(4,17)                 1.0869         estimate D2E/DX2                !
 ! R11   R(5,6)                  1.4609         estimate D2E/DX2                !
 ! R12   R(5,10)                 1.7998         estimate D2E/DX2                !
 ! R13   R(6,7)                  1.4966         estimate D2E/DX2                !
 ! R14   R(6,8)                  1.4758         estimate D2E/DX2                !
 ! R15   R(6,9)                  1.4758         estimate D2E/DX2                !
 ! R16   R(7,18)                 1.0963         estimate D2E/DX2                !
 ! R17   R(7,19)                 1.0933         estimate D2E/DX2                !
 ! R18   R(7,20)                 1.096          estimate D2E/DX2                !
 ! R19   R(8,9)                  1.226          estimate D2E/DX2                !
 ! R20   R(10,11)                1.4627         estimate D2E/DX2                !
 ! R21   R(10,12)                1.4622         estimate D2E/DX2                !
 ! A1    A(2,1,13)             110.6416         estimate D2E/DX2                !
 ! A2    A(2,1,14)             110.583          estimate D2E/DX2                !
 ! A3    A(2,1,15)             110.7654         estimate D2E/DX2                !
 ! A4    A(13,1,14)            107.1786         estimate D2E/DX2                !
 ! A5    A(13,1,15)            108.7899         estimate D2E/DX2                !
 ! A6    A(14,1,15)            108.7833         estimate D2E/DX2                !
 ! A7    A(1,2,3)              133.6558         estimate D2E/DX2                !
 ! A8    A(1,2,10)             118.1437         estimate D2E/DX2                !
 ! A9    A(3,2,10)             108.2005         estimate D2E/DX2                !
 ! A10   A(2,3,4)              115.3403         estimate D2E/DX2                !
 ! A11   A(2,3,16)             123.0561         estimate D2E/DX2                !
 ! A12   A(4,3,16)             121.6036         estimate D2E/DX2                !
 ! A13   A(3,4,5)              115.1988         estimate D2E/DX2                !
 ! A14   A(3,4,17)             121.7288         estimate D2E/DX2                !
 ! A15   A(5,4,17)             123.0724         estimate D2E/DX2                !
 ! A16   A(4,5,6)              130.3754         estimate D2E/DX2                !
 ! A17   A(4,5,10)             107.9478         estimate D2E/DX2                !
 ! A18   A(6,5,10)             121.6767         estimate D2E/DX2                !
 ! A19   A(5,6,7)              120.9928         estimate D2E/DX2                !
 ! A20   A(5,6,8)              114.3366         estimate D2E/DX2                !
 ! A21   A(5,6,9)              114.3366         estimate D2E/DX2                !
 ! A22   A(7,6,8)              118.8798         estimate D2E/DX2                !
 ! A23   A(7,6,9)              118.8798         estimate D2E/DX2                !
 ! A24   A(6,7,18)             110.916          estimate D2E/DX2                !
 ! A25   A(6,7,19)             109.8588         estimate D2E/DX2                !
 ! A26   A(6,7,20)             110.9781         estimate D2E/DX2                !
 ! A27   A(18,7,19)            108.4433         estimate D2E/DX2                !
 ! A28   A(18,7,20)            108.1216         estimate D2E/DX2                !
 ! A29   A(19,7,20)            108.4418         estimate D2E/DX2                !
 ! A30   A(2,10,5)              93.3125         estimate D2E/DX2                !
 ! A31   A(2,10,11)            110.0045         estimate D2E/DX2                !
 ! A32   A(2,10,12)            109.9808         estimate D2E/DX2                !
 ! A33   A(5,10,11)            110.5077         estimate D2E/DX2                !
 ! A34   A(5,10,12)            110.4887         estimate D2E/DX2                !
 ! A35   A(11,10,12)           119.4451         estimate D2E/DX2                !
 ! D1    D(13,1,2,3)           120.8387         estimate D2E/DX2                !
 ! D2    D(13,1,2,10)          -59.1613         estimate D2E/DX2                !
 ! D3    D(14,1,2,3)          -120.5673         estimate D2E/DX2                !
 ! D4    D(14,1,2,10)           59.4327         estimate D2E/DX2                !
 ! D5    D(15,1,2,3)             0.1121         estimate D2E/DX2                !
 ! D6    D(15,1,2,10)         -179.8879         estimate D2E/DX2                !
 ! D7    D(1,2,3,4)            180.0            estimate D2E/DX2                !
 ! D8    D(1,2,3,16)             0.0            estimate D2E/DX2                !
 ! D9    D(10,2,3,4)             0.0            estimate D2E/DX2                !
 ! D10   D(10,2,3,16)          180.0            estimate D2E/DX2                !
 ! D11   D(1,2,10,5)           180.0            estimate D2E/DX2                !
 ! D12   D(1,2,10,11)          -66.7638         estimate D2E/DX2                !
 ! D13   D(1,2,10,12)           66.7896         estimate D2E/DX2                !
 ! D14   D(3,2,10,5)             0.0            estimate D2E/DX2                !
 ! D15   D(3,2,10,11)          113.2362         estimate D2E/DX2                !
 ! D16   D(3,2,10,12)         -113.2104         estimate D2E/DX2                !
 ! D17   D(2,3,4,5)              0.0            estimate D2E/DX2                !
 ! D18   D(2,3,4,17)           180.0            estimate D2E/DX2                !
 ! D19   D(16,3,4,5)           180.0            estimate D2E/DX2                !
 ! D20   D(16,3,4,17)            0.0            estimate D2E/DX2                !
 ! D21   D(3,4,5,6)            180.0            estimate D2E/DX2                !
 ! D22   D(3,4,5,10)             0.0            estimate D2E/DX2                !
 ! D23   D(17,4,5,6)             0.0            estimate D2E/DX2                !
 ! D24   D(17,4,5,10)          180.0            estimate D2E/DX2                !
 ! D25   D(4,5,6,7)            180.0            estimate D2E/DX2                !
 ! D26   D(4,5,6,8)             27.1217         estimate D2E/DX2                !
 ! D27   D(4,5,6,9)            -27.1217         estimate D2E/DX2                !
 ! D28   D(10,5,6,7)             0.0            estimate D2E/DX2                !
 ! D29   D(10,5,6,8)          -152.8783         estimate D2E/DX2                !
 ! D30   D(10,5,6,9)           152.8783         estimate D2E/DX2                !
 ! D31   D(4,5,10,2)             0.0            estimate D2E/DX2                !
 ! D32   D(4,5,10,11)         -112.7991         estimate D2E/DX2                !
 ! D33   D(4,5,10,12)          112.7691         estimate D2E/DX2                !
 ! D34   D(6,5,10,2)           180.0            estimate D2E/DX2                !
 ! D35   D(6,5,10,11)           67.2009         estimate D2E/DX2                !
 ! D36   D(6,5,10,12)          -67.2309         estimate D2E/DX2                !
 ! D37   D(5,6,7,18)           -60.1232         estimate D2E/DX2                !
 ! D38   D(5,6,7,19)           180.0            estimate D2E/DX2                !
 ! D39   D(5,6,7,20)            60.0856         estimate D2E/DX2                !
 ! D40   D(8,6,7,18)            91.5586         estimate D2E/DX2                !
 ! D41   D(8,6,7,19)           -28.3182         estimate D2E/DX2                !
 ! D42   D(8,6,7,20)          -148.2326         estimate D2E/DX2                !
 ! D43   D(9,6,7,18)           148.1949         estimate D2E/DX2                !
 ! D44   D(9,6,7,19)            28.3182         estimate D2E/DX2                !
 ! D45   D(9,6,7,20)           -91.5963         estimate D2E/DX2                !
 --------------------------------------------------------------------------------
 Trust Radius=3.00D-01 FncErr=1.00D-07 GrdErr=1.00D-06 EigMax=2.50D+02 EigMin=1.00D-04
 Number of steps in this run=    111 maximum allowed number of steps=    120.
 GradGradGradGradGradGradGradGradGradGradGradGradGradGradGradGradGradGrad

 Leave Link  103 at Fri Aug  3 03:21:07 2018, MaxMem=  1073741824 cpu:               1.5 elap:               0.2
 (Enter /shared/apps/gaussian/gaussian-16/g16/l202.exe)
                          Input orientation:                          
 ---------------------------------------------------------------------
 Center     Atomic      Atomic             Coordinates (Angstroms)
 Number     Number       Type             X           Y           Z
 ---------------------------------------------------------------------
      1          6           0       -3.422000    0.294000    0.000000
      2          6           0       -1.989000    0.654000    0.000000
      3          6           0       -1.329000    1.818000    0.000000
      4          6           0        0.137000    1.710000    0.000000
      5          6           0        0.618000    0.456000    0.000000
      6          6           0        1.996000   -0.029000    0.000000
      7          6           0        2.297000   -1.495000    0.000000
      8          7           0        2.967000    0.898000    0.613000
      9          7           0        2.967000    0.898000   -0.613000
     10         16           0       -0.782000   -0.675000    0.000000
     11          8           0       -0.847000   -1.410000    1.263000
     12          8           0       -0.847000   -1.409000   -1.263000
     13          1           0       -3.669000   -0.311000   -0.882000
     14          1           0       -3.669000   -0.307000    0.885000
     15          1           0       -4.047000    1.191000   -0.002000
     16          1           0       -1.829000    2.783000    0.000000
     17          1           0        0.775000    2.590000    0.000000
     18          1           0        1.876000   -1.981000    0.888000
     19          1           0        3.379000   -1.652000    0.000000
     20          1           0        1.876000   -1.982000   -0.887000
 ---------------------------------------------------------------------
                    Distance matrix (angstroms):
                    1          2          3          4          5
     1  C    0.000000
     2  C    1.477528   0.000000
     3  C    2.589059   1.338094   0.000000
     4  C    3.830344   2.373818   1.469973   0.000000
     5  C    4.043247   2.614508   2.376100   1.343085   0.000000
     6  C    5.427619   4.043107   3.803555   2.545585   1.460859
     7  C    5.992285   4.794580   4.911603   3.864922   2.573993
     8  N    6.446697   4.999724   4.435965   3.007327   2.467577
     9  N    6.446697   4.999724   4.435965   3.007327   2.467577
    10  S    2.812216   1.795297   2.552304   2.555932   1.799767
    11  O    3.336077   2.675711   3.499640   3.506825   2.687629
    12  O    3.335566   2.674940   3.498717   3.505936   2.686935
    13  H    1.097706   2.128744   3.284230   4.398636   4.443488
    14  H    1.097923   2.128179   3.282446   4.397403   4.443395
    15  H    1.093269   2.126908   2.789383   4.216067   4.722547
    16  H    2.955126   2.135004   1.086842   2.239751   3.376794
    17  H    4.783976   3.374580   2.241160   1.086943   2.139768
    18  H    5.833779   4.761302   5.049056   4.175661   2.882720
    19  H    7.073932   5.842351   5.848604   4.670504   3.473728
    20  H    5.834017   4.761669   5.049633   4.176333   2.883258
                    6          7          8          9         10
     6  C    0.000000
     7  C    1.496582   0.000000
     8  N    1.475784   2.559515   0.000000
     9  N    1.475784   2.559515   1.226000   0.000000
    10  S    2.852122   3.186321   4.111581   4.111581   0.000000
    11  O    3.403671   3.389267   4.505104   4.836614   1.462744
    12  O    3.403266   3.389292   4.836137   4.504592   1.462241
    13  H    5.740181   6.145969   6.908922   6.750595   3.040590
    14  H    5.740447   6.147172   6.750000   6.908873   3.041943
    15  H    6.164921   6.889190   7.047004   7.046656   3.760610
    16  H    4.747417   5.943497   5.189471   5.189471   3.613028
    17  H    2.889637   4.359324   2.836106   2.836106   3.617247
    18  H    2.147847   1.096349   3.091043   3.425189   3.091787
    19  H    2.132327   1.093331   2.654809   2.654809   4.274161
    20  H    2.148343   1.095983   3.425592   3.091886   3.091922
                   11         12         13         14         15
    11  O    0.000000
    12  O    2.526000   0.000000
    13  H    3.711133   3.051958   0.000000
    14  H    3.053388   3.713757   1.767005   0.000000
    15  H    4.313401   4.311626   1.781373   1.781476   0.000000
    16  H    4.487844   4.486910   3.706260   3.703637   2.730200
    17  H    4.497338   4.496449   5.379857   5.378194   5.020845
    18  H    2.807382   3.516918   6.055479   5.792177   6.777582
    19  H    4.417331   4.417385   7.228451   7.229561   7.951612
    20  H    3.516307   2.807923   5.791312   6.057445   6.777395
                   16         17         18         19         20
    16  H    0.000000
    17  H    2.611142   0.000000
    18  H    6.100104   4.784850   0.000000
    19  H    6.840504   4.977487   1.776455   0.000000
    20  H    6.100739   4.785620   1.775000   1.776141   0.000000
 Stoichiometry    C7H8N2O2S(1+,2)
 Framework group  C1[X(C7H8N2O2S)]
 Deg. of freedom    54
 Full point group                 C1      NOp   1
 Largest Abelian subgroup         C1      NOp   1
 Largest concise Abelian subgroup C1      NOp   1
                         Standard orientation:                         
 ---------------------------------------------------------------------
 Center     Atomic      Atomic             Coordinates (Angstroms)
 Number     Number       Type             X           Y           Z
 ---------------------------------------------------------------------
      1          6           0       -3.422142    0.294057   -0.000021
      2          6           0       -1.989137    0.654038   -0.000021
      3          6           0       -1.329121    1.818029   -0.000021
      4          6           0        0.136877    1.710009   -0.000021
      5          6           0        0.617860    0.456002   -0.000021
      6          6           0        1.995854   -0.029017   -0.000021
      7          6           0        2.296834   -1.495021   -0.000021
      8          7           0        2.966866    0.897970    0.612979
      9          7           0        2.966866    0.897970   -0.613021
     10         16           0       -0.782155   -0.674979   -0.000021
     11          8           0       -0.847165   -1.409978    1.262979
     12          8           0       -0.847165   -1.408978   -1.263021
     13          1           0       -3.669150   -0.310940   -0.882021
     14          1           0       -3.669150   -0.306940    0.884979
     15          1           0       -4.047130    1.191066   -0.002021
     16          1           0       -1.829108    2.783035   -0.000021
     17          1           0        0.774889    2.590000   -0.000021
     18          1           0        1.875827   -1.981015    0.887979
     19          1           0        3.378832   -1.652036   -0.000021
     20          1           0        1.875827   -1.982015   -0.887021
 ---------------------------------------------------------------------
 Rotational constants (GHZ):           1.6748550           0.6777132           0.5505044
 Leave Link  202 at Fri Aug  3 03:21:08 2018, MaxMem=  1073741824 cpu:               1.4 elap:               0.7
 (Enter /shared/apps/gaussian/gaussian-16/g16/l301.exe)
 Standard basis: 6-31+G(d,p) (6D, 7F)
 Ernie: Thresh=  0.10000D-02 Tol=  0.10000D-05 Strict=F.
 There are   272 symmetry adapted cartesian basis functions of A   symmetry.
 There are   272 symmetry adapted basis functions of A   symmetry.
   272 basis functions,   464 primitive gaussians,   272 cartesian basis functions
    48 alpha electrons       47 beta electrons
       nuclear repulsion energy       834.5705117183 Hartrees.
 IExCor= 4235 DFT=T Ex+Corr=M06 ExCW=0 ScaHFX=  0.270000
 ScaDFX=  1.000000  1.000000  1.000000  1.000000 ScalE2=  1.000000  1.000000
 IRadAn=      5 IRanWt=     -1 IRanGd=            0 ICorTp=0 IEmpDi=  4
 NAtoms=   20 NActive=   20 NUniq=   20 SFac= 1.00D+00 NAtFMM=   60 NAOKFM=F Big=F
 Integral buffers will be    131072 words long.
 Raffenetti 2 integral format.
 Two-electron integral symmetry is turned on.
 ------------------------------------------------------------------------------
 Polarizable Continuum Model (PCM)
 =================================
 Model                : PCM.
 Atomic radii         : UFF (Universal Force Field).
 Polarization charges : Total charges.
 Charge compensation  : None.
 Solution method      : On-the-fly selection.
 Cavity type          : Scaled VdW (van der Waals Surface) (Alpha=1.100).
 Cavity algorithm     : GePol (No added spheres)
                        Default sphere list used, NSphG=   20.
                        Lebedev-Laikov grids with approx.  5.0 points / Ang**2.
                        Smoothing algorithm: York/Karplus (Gamma=1.0000).
                        Polarization charges: spherical gaussians, with
                                              point-specific exponents (IZeta= 3).
                        Self-potential: point-specific (ISelfS= 7).
                        Self-field    : sphere-specific E.n sum rule (ISelfD= 2).
 1st derivatives      : Analytical E(r).r(x)/FMM algorithm (CHGder, D1EAlg=3).
                        Cavity 1st derivative terms included.
 Solvent              : Acetonitrile, Eps=  35.688000 Eps(inf)=   1.806874
 ------------------------------------------------------------------------------
 Spheres list:
 ISph  on   Nord     Re0    Alpha      Xe            Ye            Ze
    1   C      1    1.9255  1.100     -3.422142      0.294057     -0.000021
    2   C      2    1.9255  1.100     -1.989137      0.654038     -0.000021
    3   C      3    1.9255  1.100     -1.329121      1.818029     -0.000021
    4   C      4    1.9255  1.100      0.136877      1.710009     -0.000021
    5   C      5    1.9255  1.100      0.617860      0.456002     -0.000021
    6   C      6    1.9255  1.100      1.995854     -0.029017     -0.000021
    7   C      7    1.9255  1.100      2.296834     -1.495021     -0.000021
    8   N      8    1.8300  1.100      2.966866      0.897970      0.612979
    9   N      9    1.8300  1.100      2.966866      0.897970     -0.613021
   10   S     10    2.0175  1.100     -0.782155     -0.674979     -0.000021
   11   O     11    1.7500  1.100     -0.847165     -1.409978      1.262979
   12   O     12    1.7500  1.100     -0.847165     -1.408978     -1.263021
   13   H     13    1.4430  1.100     -3.669150     -0.310940     -0.882021
   14   H     14    1.4430  1.100     -3.669150     -0.306940      0.884979
   15   H     15    1.4430  1.100     -4.047130      1.191066     -0.002021
   16   H     16    1.4430  1.100     -1.829108      2.783035     -0.000021
   17   H     17    1.4430  1.100      0.774889      2.590000     -0.000021
   18   H     18    1.4430  1.100      1.875827     -1.981015      0.887979
   19   H     19    1.4430  1.100      3.378832     -1.652036     -0.000021
   20   H     20    1.4430  1.100      1.875827     -1.982015     -0.887021
 ------------------------------------------------------------------------------
 GePol: Number of generator spheres                  =      20
 GePol: Total number of spheres                      =      20
 GePol: Number of exposed spheres                    =      20 (100.00%)
 GePol: Number of points                             =    1751
 GePol: Average weight of points                     =       0.13
 GePol: Minimum weight of points                     =   0.61D-08
 GePol: Maximum weight of points                     =    0.20577
 GePol: Number of points with low weight             =     104
 GePol: Fraction of low-weight points (<1% of avg)   =       5.94%
 GePol: Cavity surface area                          =    232.860 Ang**2
 GePol: Cavity volume                                =    239.582 Ang**3
 Leave Link  301 at Fri Aug  3 03:21:08 2018, MaxMem=  1073741824 cpu:               4.3 elap:               0.3
 (Enter /shared/apps/gaussian/gaussian-16/g16/l302.exe)
 NPDir=0 NMtPBC=     1 NCelOv=     1 NCel=       1 NClECP=     1 NCelD=      1
         NCelK=      1 NCelE2=     1 NClLst=     1 CellRange=     0.0.
 One-electron integrals computed using PRISM.
 One-electron integral symmetry used in STVInt
 NBasis=   272 RedAO= T EigKep=  2.04D-06  NBF=   272
 NBsUse=   272 1.00D-06 EigRej= -1.00D+00 NBFU=   272
 Precomputing XC quadrature grid using
 IXCGrd= 4 IRadAn=           5 IRanWt=          -1 IRanGd=           0 AccXCQ= 0.00D+00.
 Generated NRdTot=       0 NPtTot=           0 NUsed=           0 NTot=          32
 NSgBfM=   271   271   271   271   271 MxSgAt=    20 MxSgA2=    20.
 Leave Link  302 at Fri Aug  3 03:21:10 2018, MaxMem=  1073741824 cpu:              31.7 elap:               2.2
 (Enter /shared/apps/gaussian/gaussian-16/g16/l303.exe)
 DipDrv:  MaxL=1.
 Leave Link  303 at Fri Aug  3 03:21:10 2018, MaxMem=  1073741824 cpu:               3.5 elap:               0.3
 (Enter /shared/apps/gaussian/gaussian-16/g16/l401.exe)
 ExpMin= 4.05D-02 ExpMax= 2.19D+04 ExpMxC= 3.30D+03 IAcc=3 IRadAn=         5 AccDes= 0.00D+00
 Harris functional with IExCor= 1009 and IRadAn=       5 diagonalized for initial guess.
 HarFok:  IExCor= 1009 AccDes= 0.00D+00 IRadAn=         5 IDoV= 1 UseB2=F ITyADJ=14
 ICtDFT=  3500011 ScaDFX=  1.000000  1.000000  1.000000  1.000000
 FoFCou: FMM=F IPFlag=           0 FMFlag=      100000 FMFlg1=           0
         NFxFlg=           0 DoJE=T BraDBF=F KetDBF=T FulRan=T
         wScrn=  0.000000 ICntrl=       500 IOpCl=  0 I1Cent=   200000004 NGrid=           0
         NMat0=    1 NMatS0=      1 NMatT0=    0 NMatD0=    1 NMtDS0=    0 NMtDT0=    0
 Petite list used in FoFCou.
 Harris En= -928.650719819162    
 JPrj=0 DoOrth=F DoCkMO=F.
 Initial guess <Sx>= 0.0000 <Sy>= 0.0000 <Sz>= 0.5000 <S**2>= 0.7500 S= 0.5000
 Leave Link  401 at Fri Aug  3 03:21:13 2018, MaxMem=  1073741824 cpu:              38.3 elap:               2.6
 (Enter /shared/apps/gaussian/gaussian-16/g16/l502.exe)
 Integral symmetry usage will be decided dynamically.
 UHF open shell SCF:
 Using DIIS extrapolation, IDIIS=  1040.
 NGot=  1073741824 LenX=  1073586723 LenY=  1073512298
 Requested convergence on RMS density matrix=1.00D-08 within 128 cycles.
 Requested convergence on MAX density matrix=1.00D-06.
 Requested convergence on             energy=1.00D-06.
 No special actions if energy rises.
 Fock matrices will be formed incrementally for  20 cycles.

 Cycle   1  Pass 1  IDiag  1:
 FoFJK:  IHMeth= 1 ICntrl=       0 DoSepK=F KAlg= 0 I1Cent=           0 FoldK=F
 IRaf= 910000000 NMat=       1 IRICut=       1 DoRegI=T DoRafI=F ISym2E= 0 IDoP0=0 IntGTp=1.
 FoFCou: FMM=F IPFlag=           0 FMFlag=      100000 FMFlg1=           0
         NFxFlg=           0 DoJE=F BraDBF=F KetDBF=F FulRan=T
         wScrn=  0.000000 ICntrl=         0 IOpCl=  1 I1Cent=           0 NGrid=           0
         NMat0=    1 NMatS0=      1 NMatT0=    0 NMatD0=    1 NMtDS0=    0 NMtDT0=    0
 Symmetry not used in FoFCou.
 Inv3:  Mode=1 IEnd=     9198003.
 Iteration    1 A*A^-1 deviation from unit magnitude is 6.66D-15 for     96.
 Iteration    1 A*A^-1 deviation from orthogonality  is 3.68D-15 for   1352    241.
 Iteration    1 A^-1*A deviation from unit magnitude is 6.00D-15 for    302.
 Iteration    1 A^-1*A deviation from orthogonality  is 3.78D-15 for   1340    259.
 E= -928.587137764955    
 DIIS: error= 2.79D-02 at cycle   1 NSaved=   1.
 NSaved= 1 IEnMin= 1 EnMin= -928.587137764955     IErMin= 1 ErrMin= 2.79D-02
 ErrMax= 2.79D-02  0.00D+00 EMaxC= 1.00D-01 BMatC= 1.68D+00 BMatP= 1.68D+00
 IDIUse=3 WtCom= 7.21D-01 WtEn= 2.79D-01
 Coeff-Com:  0.100D+01
 Coeff-En:   0.100D+01
 Coeff:      0.100D+01
 Gap=     0.232 Goal=   None    Shift=    0.000
 Gap=     0.062 Goal=   None    Shift=    0.000
 GapD=    0.062 DampG=0.500 DampE=0.500 DampFc=0.2500 IDamp=-1.
 Damping current iteration by 2.50D-01
 RMSDP=6.96D-02 MaxDP=9.27D+00              OVMax= 5.79D-01

 Cycle   2  Pass 1  IDiag  1:
 RMSU=  1.27D-02    CP:  1.16D+00
 E= -928.715034683687     Delta-E=       -0.127896918732 Rises=F Damp=T
 DIIS: error= 1.67D-02 at cycle   2 NSaved=   2.
 NSaved= 2 IEnMin= 2 EnMin= -928.715034683687     IErMin= 2 ErrMin= 1.67D-02
 ErrMax= 1.67D-02  0.00D+00 EMaxC= 1.00D-01 BMatC= 2.62D-01 BMatP= 1.68D+00
 IDIUse=3 WtCom= 8.33D-01 WtEn= 1.67D-01
 Coeff-Com: -0.514D+00 0.151D+01
 Coeff-En:   0.000D+00 0.100D+01
 Coeff:     -0.428D+00 0.143D+01
 Gap=     0.147 Goal=   None    Shift=    0.000
 Gap=     0.211 Goal=   None    Shift=    0.000
 RMSDP=2.96D-02 MaxDP=3.55D+00 DE=-1.28D-01 OVMax= 4.57D-01

 Cycle   3  Pass 1  IDiag  1:
 RMSU=  9.11D-03    CP:  1.39D+00  2.77D+00
 E= -928.938048787233     Delta-E=       -0.223014103545 Rises=F Damp=F
 DIIS: error= 7.15D-03 at cycle   3 NSaved=   3.
 NSaved= 3 IEnMin= 3 EnMin= -928.938048787233     IErMin= 3 ErrMin= 7.15D-03
 ErrMax= 7.15D-03  0.00D+00 EMaxC= 1.00D-01 BMatC= 7.79D-02 BMatP= 2.62D-01
 IDIUse=3 WtCom= 9.29D-01 WtEn= 7.15D-02
 Coeff-Com: -0.281D+00 0.779D+00 0.502D+00
 Coeff-En:   0.000D+00 0.000D+00 0.100D+01
 Coeff:     -0.261D+00 0.723D+00 0.538D+00
 Gap=     0.167 Goal=   None    Shift=    0.000
 Gap=     0.098 Goal=   None    Shift=    0.000
 RMSDP=3.43D-03 MaxDP=2.91D-01 DE=-2.23D-01 OVMax= 7.14D-02

 Cycle   4  Pass 1  IDiag  1:
 RMSU=  2.47D-03    CP:  1.39D+00  2.95D+00  1.02D+00
 E= -928.957217823303     Delta-E=       -0.019169036070 Rises=F Damp=F
 DIIS: error= 1.99D-03 at cycle   4 NSaved=   4.
 NSaved= 4 IEnMin= 4 EnMin= -928.957217823303     IErMin= 4 ErrMin= 1.99D-03
 ErrMax= 1.99D-03  0.00D+00 EMaxC= 1.00D-01 BMatC= 4.72D-03 BMatP= 7.79D-02
 IDIUse=3 WtCom= 9.80D-01 WtEn= 1.99D-02
 Coeff-Com: -0.597D-01 0.122D+00 0.197D+00 0.740D+00
 Coeff-En:   0.000D+00 0.000D+00 0.000D+00 0.100D+01
 Coeff:     -0.585D-01 0.120D+00 0.193D+00 0.746D+00
 Gap=     0.170 Goal=   None    Shift=    0.000
 Gap=     0.105 Goal=   None    Shift=    0.000
 RMSDP=3.50D-03 MaxDP=4.18D-01 DE=-1.92D-02 OVMax= 3.77D-02

 Cycle   5  Pass 1  IDiag  1:
 RMSU=  2.17D-03    CP:  1.42D+00  3.00D+00  1.09D+00  1.12D+00
 E= -928.958612702681     Delta-E=       -0.001394879378 Rises=F Damp=F
 DIIS: error= 8.22D-04 at cycle   5 NSaved=   5.
 NSaved= 5 IEnMin= 5 EnMin= -928.958612702681     IErMin= 5 ErrMin= 8.22D-04
 ErrMax= 8.22D-04  0.00D+00 EMaxC= 1.00D-01 BMatC= 1.68D-03 BMatP= 4.72D-03
 IDIUse=3 WtCom= 9.92D-01 WtEn= 8.22D-03
 Coeff-Com: -0.171D-01 0.196D-01 0.822D-01 0.463D+00 0.452D+00
 Coeff-En:   0.000D+00 0.000D+00 0.000D+00 0.000D+00 0.100D+01
 Coeff:     -0.169D-01 0.195D-01 0.815D-01 0.459D+00 0.457D+00
 Gap=     0.173 Goal=   None    Shift=    0.000
 Gap=     0.106 Goal=   None    Shift=    0.000
 RMSDP=6.73D-04 MaxDP=5.75D-02 DE=-1.39D-03 OVMax= 1.06D-02

 Cycle   6  Pass 1  IDiag  1:
 RMSU=  4.72D-04    CP:  1.42D+00  3.00D+00  1.11D+00  1.23D+00  1.15D+00
 E= -928.959103440391     Delta-E=       -0.000490737710 Rises=F Damp=F
 DIIS: error= 5.83D-04 at cycle   6 NSaved=   6.
 NSaved= 6 IEnMin= 6 EnMin= -928.959103440391     IErMin= 6 ErrMin= 5.83D-04
 ErrMax= 5.83D-04  0.00D+00 EMaxC= 1.00D-01 BMatC= 1.13D-04 BMatP= 1.68D-03
 IDIUse=3 WtCom= 9.94D-01 WtEn= 5.83D-03
 Coeff-Com:  0.125D-01-0.235D-01-0.120D-01-0.389D-01 0.361D-01 0.103D+01
 Coeff-En:   0.000D+00 0.000D+00 0.000D+00 0.000D+00 0.000D+00 0.100D+01
 Coeff:      0.124D-01-0.233D-01-0.119D-01-0.386D-01 0.359D-01 0.103D+01
 Gap=     0.173 Goal=   None    Shift=    0.000
 Gap=     0.108 Goal=   None    Shift=    0.000
 RMSDP=3.67D-04 MaxDP=4.05D-02 DE=-4.91D-04 OVMax= 2.09D-02

 Cycle   7  Pass 1  IDiag  1:
 RMSU=  2.25D-04    CP:  1.42D+00  3.00D+00  1.13D+00  1.25D+00  1.23D+00
                    CP:  1.22D+00
 E= -928.959250934146     Delta-E=       -0.000147493755 Rises=F Damp=F
 DIIS: error= 2.40D-04 at cycle   7 NSaved=   7.
 NSaved= 7 IEnMin= 7 EnMin= -928.959250934146     IErMin= 7 ErrMin= 2.40D-04
 ErrMax= 2.40D-04  0.00D+00 EMaxC= 1.00D-01 BMatC= 9.61D-05 BMatP= 1.13D-04
 IDIUse=3 WtCom= 9.98D-01 WtEn= 2.40D-03
 Coeff-Com:  0.111D-01-0.144D-01-0.193D-01-0.126D+00-0.186D+00 0.490D+00
 Coeff-Com:  0.845D+00
 Coeff-En:   0.000D+00 0.000D+00 0.000D+00 0.000D+00 0.000D+00 0.000D+00
 Coeff-En:   0.100D+01
 Coeff:      0.110D-01-0.143D-01-0.192D-01-0.126D+00-0.186D+00 0.488D+00
 Coeff:      0.846D+00
 Gap=     0.172 Goal=   None    Shift=    0.000
 Gap=     0.109 Goal=   None    Shift=    0.000
 RMSDP=7.47D-04 MaxDP=1.04D-01 DE=-1.47D-04 OVMax= 9.32D-03

 Cycle   8  Pass 1  IDiag  1:
 RMSU=  2.22D-04    CP:  1.41D+00  3.00D+00  1.13D+00  1.23D+00  1.07D+00
                    CP:  1.58D+00  2.03D+00
 E= -928.959309058013     Delta-E=       -0.000058123867 Rises=F Damp=F
 DIIS: error= 1.17D-04 at cycle   8 NSaved=   8.
 NSaved= 8 IEnMin= 8 EnMin= -928.959309058013     IErMin= 8 ErrMin= 1.17D-04
 ErrMax= 1.17D-04  0.00D+00 EMaxC= 1.00D-01 BMatC= 1.54D-05 BMatP= 9.61D-05
 IDIUse=3 WtCom= 9.99D-01 WtEn= 1.17D-03
 Coeff-Com:  0.245D-02-0.109D-02-0.215D-03-0.262D-01-0.102D+00-0.126D-01
 Coeff-Com:  0.332D+00 0.808D+00
 Coeff-En:   0.000D+00 0.000D+00 0.000D+00 0.000D+00 0.000D+00 0.000D+00
 Coeff-En:   0.000D+00 0.100D+01
 Coeff:      0.245D-02-0.109D-02-0.215D-03-0.261D-01-0.102D+00-0.125D-01
 Coeff:      0.332D+00 0.808D+00
 Gap=     0.172 Goal=   None    Shift=    0.000
 Gap=     0.109 Goal=   None    Shift=    0.000
 RMSDP=4.16D-04 MaxDP=5.91D-02 DE=-5.81D-05 OVMax= 6.26D-03

 Cycle   9  Pass 1  IDiag  1:
 RMSU=  7.31D-05    CP:  1.41D+00  3.00D+00  1.13D+00  1.21D+00  9.70D-01
                    CP:  1.68D+00  2.47D+00  1.37D+00
 E= -928.959319868067     Delta-E=       -0.000010810054 Rises=F Damp=F
 DIIS: error= 8.14D-05 at cycle   9 NSaved=   9.
 NSaved= 9 IEnMin= 9 EnMin= -928.959319868067     IErMin= 9 ErrMin= 8.14D-05
 ErrMax= 8.14D-05  0.00D+00 EMaxC= 1.00D-01 BMatC= 6.98D-06 BMatP= 1.54D-05
 IDIUse=1 WtCom= 1.00D+00 WtEn= 0.00D+00
 Coeff-Com: -0.123D-02 0.335D-02 0.485D-02 0.123D-01-0.218D-01-0.129D+00
 Coeff-Com: -0.344D-01 0.495D+00 0.670D+00
 Coeff:     -0.123D-02 0.335D-02 0.485D-02 0.123D-01-0.218D-01-0.129D+00
 Coeff:     -0.344D-01 0.495D+00 0.670D+00
 Gap=     0.172 Goal=   None    Shift=    0.000
 Gap=     0.109 Goal=   None    Shift=    0.000
 RMSDP=2.56D-04 MaxDP=3.73D-02 DE=-1.08D-05 OVMax= 1.93D-03

 Cycle  10  Pass 1  IDiag  1:
 RMSU=  2.47D-05    CP:  1.41D+00  3.00D+00  1.13D+00  1.20D+00  9.07D-01
                    CP:  1.74D+00  2.81D+00  1.68D+00  1.18D+00
 E= -928.959323398021     Delta-E=       -0.000003529955 Rises=F Damp=F
 DIIS: error= 2.66D-05 at cycle  10 NSaved=  10.
 NSaved=10 IEnMin=10 EnMin= -928.959323398021     IErMin=10 ErrMin= 2.66D-05
 ErrMax= 2.66D-05  0.00D+00 EMaxC= 1.00D-01 BMatC= 7.16D-07 BMatP= 6.98D-06
 IDIUse=1 WtCom= 1.00D+00 WtEn= 0.00D+00
 Coeff-Com: -0.771D-03 0.104D-02 0.212D-02 0.111D-01 0.160D-01-0.431D-01
 Coeff-Com: -0.106D+00 0.501D-01 0.282D+00 0.788D+00
 Coeff:     -0.771D-03 0.104D-02 0.212D-02 0.111D-01 0.160D-01-0.431D-01
 Coeff:     -0.106D+00 0.501D-01 0.282D+00 0.788D+00
 Gap=     0.172 Goal=   None    Shift=    0.000
 Gap=     0.109 Goal=   None    Shift=    0.000
 RMSDP=4.05D-05 MaxDP=6.73D-03 DE=-3.53D-06 OVMax= 1.28D-03

 Cycle  11  Pass 1  IDiag  1:
 RMSU=  1.24D-05    CP:  1.41D+00  3.00D+00  1.12D+00  1.20D+00  8.99D-01
                    CP:  1.76D+00  2.86D+00  1.71D+00  1.33D+00  1.13D+00
 E= -928.959323889663     Delta-E=       -0.000000491641 Rises=F Damp=F
 DIIS: error= 1.18D-05 at cycle  11 NSaved=  11.
 NSaved=11 IEnMin=11 EnMin= -928.959323889663     IErMin=11 ErrMin= 1.18D-05
 ErrMax= 1.18D-05  0.00D+00 EMaxC= 1.00D-01 BMatC= 2.40D-07 BMatP= 7.16D-07
 IDIUse=1 WtCom= 1.00D+00 WtEn= 0.00D+00
 Coeff-Com: -0.836D-04-0.246D-03 0.665D-04 0.246D-02 0.120D-01 0.131D-02
 Coeff-Com: -0.512D-01-0.571D-01 0.944D-02 0.426D+00 0.657D+00
 Coeff:     -0.836D-04-0.246D-03 0.665D-04 0.246D-02 0.120D-01 0.131D-02
 Coeff:     -0.512D-01-0.571D-01 0.944D-02 0.426D+00 0.657D+00
 Gap=     0.172 Goal=   None    Shift=    0.000
 Gap=     0.109 Goal=   None    Shift=    0.000
 RMSDP=1.33D-05 MaxDP=2.03D-03 DE=-4.92D-07 OVMax= 3.68D-04

 Cycle  12  Pass 1  IDiag  1:
 RMSU=  4.45D-06    CP:  1.41D+00  3.00D+00  1.12D+00  1.20D+00  8.97D-01
                    CP:  1.77D+00  2.89D+00  1.73D+00  1.32D+00  1.28D+00
                    CP:  1.30D+00
 E= -928.959324005733     Delta-E=       -0.000000116070 Rises=F Damp=F
 DIIS: error= 6.50D-06 at cycle  12 NSaved=  12.
 NSaved=12 IEnMin=12 EnMin= -928.959324005733     IErMin=12 ErrMin= 6.50D-06
 ErrMax= 6.50D-06  0.00D+00 EMaxC= 1.00D-01 BMatC= 3.60D-08 BMatP= 2.40D-07
 IDIUse=1 WtCom= 1.00D+00 WtEn= 0.00D+00
 Coeff-Com:  0.142D-03-0.305D-03-0.299D-03-0.135D-02 0.184D-02 0.100D-01
 Coeff-Com:  0.760D-03-0.305D-01-0.681D-01 0.136D-01 0.269D+00 0.805D+00
 Coeff:      0.142D-03-0.305D-03-0.299D-03-0.135D-02 0.184D-02 0.100D-01
 Coeff:      0.760D-03-0.305D-01-0.681D-01 0.136D-01 0.269D+00 0.805D+00
 Gap=     0.172 Goal=   None    Shift=    0.000
 Gap=     0.109 Goal=   None    Shift=    0.000
 RMSDP=4.99D-06 MaxDP=6.17D-04 DE=-1.16D-07 OVMax= 1.54D-04

 Cycle  13  Pass 1  IDiag  1:
 RMSU=  2.20D-06    CP:  1.41D+00  3.00D+00  1.13D+00  1.20D+00  8.97D-01
                    CP:  1.78D+00  2.89D+00  1.74D+00  1.32D+00  1.36D+00
                    CP:  1.44D+00  1.19D+00
 E= -928.959324024543     Delta-E=       -0.000000018810 Rises=F Damp=F
 DIIS: error= 3.22D-06 at cycle  13 NSaved=  13.
 NSaved=13 IEnMin=13 EnMin= -928.959324024543     IErMin=13 ErrMin= 3.22D-06
 ErrMax= 3.22D-06  0.00D+00 EMaxC= 1.00D-01 BMatC= 1.72D-08 BMatP= 3.60D-08
 IDIUse=1 WtCom= 1.00D+00 WtEn= 0.00D+00
 Coeff-Com:  0.112D-03-0.154D-03-0.169D-03-0.125D-02-0.101D-02 0.597D-02
 Coeff-Com:  0.102D-01-0.765D-02-0.494D-01-0.732D-01 0.315D-01 0.517D+00
 Coeff-Com:  0.568D+00
 Coeff:      0.112D-03-0.154D-03-0.169D-03-0.125D-02-0.101D-02 0.597D-02
 Coeff:      0.102D-01-0.765D-02-0.494D-01-0.732D-01 0.315D-01 0.517D+00
 Coeff:      0.568D+00
 Gap=     0.172 Goal=   None    Shift=    0.000
 Gap=     0.109 Goal=   None    Shift=    0.000
 RMSDP=2.50D-06 MaxDP=3.70D-04 DE=-1.88D-08 OVMax= 5.79D-05

 Cycle  14  Pass 1  IDiag  1:
 RMSU=  8.68D-07    CP:  1.41D+00  3.00D+00  1.13D+00  1.20D+00  8.97D-01
                    CP:  1.78D+00  2.90D+00  1.74D+00  1.32D+00  1.39D+00
                    CP:  1.47D+00  1.21D+00  1.06D+00
 E= -928.959324029785     Delta-E=       -0.000000005242 Rises=F Damp=F
 DIIS: error= 1.04D-06 at cycle  14 NSaved=  14.
 NSaved=14 IEnMin=14 EnMin= -928.959324029785     IErMin=14 ErrMin= 1.04D-06
 ErrMax= 1.04D-06  0.00D+00 EMaxC= 1.00D-01 BMatC= 2.08D-09 BMatP= 1.72D-08
 IDIUse=1 WtCom= 1.00D+00 WtEn= 0.00D+00
 Coeff-Com:  0.306D-04-0.221D-04-0.206D-04-0.359D-03-0.894D-03 0.874D-03
 Coeff-Com:  0.490D-02 0.311D-02-0.131D-01-0.349D-01-0.415D-01 0.919D-01
 Coeff-Com:  0.276D+00 0.714D+00
 Coeff:      0.306D-04-0.221D-04-0.206D-04-0.359D-03-0.894D-03 0.874D-03
 Coeff:      0.490D-02 0.311D-02-0.131D-01-0.349D-01-0.415D-01 0.919D-01
 Coeff:      0.276D+00 0.714D+00
 Gap=     0.172 Goal=   None    Shift=    0.000
 Gap=     0.109 Goal=   None    Shift=    0.000
 RMSDP=1.20D-06 MaxDP=1.61D-04 DE=-5.24D-09 OVMax= 1.80D-05

 Cycle  15  Pass 1  IDiag  1:
 RMSU=  3.15D-07    CP:  1.41D+00  3.00D+00  1.13D+00  1.20D+00  8.97D-01
                    CP:  1.78D+00  2.90D+00  1.74D+00  1.32D+00  1.40D+00
                    CP:  1.47D+00  1.24D+00  1.07D+00  1.07D+00
 E= -928.959324030457     Delta-E=       -0.000000000672 Rises=F Damp=F
 DIIS: error= 5.92D-07 at cycle  15 NSaved=  15.
 NSaved=15 IEnMin=15 EnMin= -928.959324030457     IErMin=15 ErrMin= 5.92D-07
 ErrMax= 5.92D-07  0.00D+00 EMaxC= 1.00D-01 BMatC= 7.79D-10 BMatP= 2.08D-09
 IDIUse=1 WtCom= 1.00D+00 WtEn= 0.00D+00
 Coeff-Com: -0.733D-05 0.220D-04 0.312D-04 0.901D-04-0.289D-03-0.852D-03
 Coeff-Com:  0.538D-03 0.431D-02 0.359D-02-0.144D-02-0.337D-01-0.719D-01
 Coeff-Com:  0.292D-01 0.466D+00 0.604D+00
 Coeff:     -0.733D-05 0.220D-04 0.312D-04 0.901D-04-0.289D-03-0.852D-03
 Coeff:      0.538D-03 0.431D-02 0.359D-02-0.144D-02-0.337D-01-0.719D-01
 Coeff:      0.292D-01 0.466D+00 0.604D+00
 Gap=     0.172 Goal=   None    Shift=    0.000
 Gap=     0.109 Goal=   None    Shift=    0.000
 RMSDP=3.29D-07 MaxDP=3.43D-05 DE=-6.72D-10 OVMax= 7.50D-06

 Cycle  16  Pass 1  IDiag  1:
 RMSU=  1.89D-07    CP:  1.41D+00  3.00D+00  1.13D+00  1.20D+00  8.97D-01
                    CP:  1.78D+00  2.90D+00  1.74D+00  1.32D+00  1.40D+00
                    CP:  1.47D+00  1.25D+00  1.09D+00  1.00D+00  9.07D-01
 E= -928.959324030664     Delta-E=       -0.000000000207 Rises=F Damp=F
 DIIS: error= 1.77D-07 at cycle  16 NSaved=  16.
 NSaved=16 IEnMin=16 EnMin= -928.959324030664     IErMin=16 ErrMin= 1.77D-07
 ErrMax= 1.77D-07  0.00D+00 EMaxC= 1.00D-01 BMatC= 4.34D-11 BMatP= 7.79D-10
 IDIUse=1 WtCom= 1.00D+00 WtEn= 0.00D+00
 Coeff-Com: -0.551D-05 0.917D-05 0.873D-05 0.523D-04 0.141D-04-0.394D-03
 Coeff-Com: -0.356D-03 0.114D-02 0.214D-02 0.250D-02-0.746D-02-0.338D-01
 Coeff-Com: -0.196D-01 0.847D-01 0.208D+00 0.763D+00
 Coeff:     -0.551D-05 0.917D-05 0.873D-05 0.523D-04 0.141D-04-0.394D-03
 Coeff:     -0.356D-03 0.114D-02 0.214D-02 0.250D-02-0.746D-02-0.338D-01
 Coeff:     -0.196D-01 0.847D-01 0.208D+00 0.763D+00
 Gap=     0.172 Goal=   None    Shift=    0.000
 Gap=     0.109 Goal=   None    Shift=    0.000
 RMSDP=3.47D-07 MaxDP=4.26D-05 DE=-2.07D-10 OVMax= 4.65D-06

 Cycle  17  Pass 1  IDiag  1:
 RMSU=  5.16D-08    CP:  1.41D+00  3.00D+00  1.13D+00  1.20D+00  8.96D-01
                    CP:  1.78D+00  2.90D+00  1.74D+00  1.32D+00  1.40D+00
                    CP:  1.47D+00  1.24D+00  1.08D+00  1.03D+00  1.02D+00
                    CP:  1.05D+00
 E= -928.959324030666     Delta-E=       -0.000000000003 Rises=F Damp=F
 DIIS: error= 7.44D-08 at cycle  17 NSaved=  17.
 NSaved=17 IEnMin=17 EnMin= -928.959324030666     IErMin=17 ErrMin= 7.44D-08
 ErrMax= 7.44D-08  0.00D+00 EMaxC= 1.00D-01 BMatC= 1.09D-11 BMatP= 4.34D-11
 IDIUse=1 WtCom= 1.00D+00 WtEn= 0.00D+00
 Coeff-Com: -0.129D-05 0.983D-07-0.252D-05 0.368D-05 0.845D-04 0.568D-05
 Coeff-Com: -0.342D-03-0.374D-03 0.298D-03 0.178D-02 0.515D-02 0.105D-02
 Coeff-Com: -0.180D-01-0.747D-01-0.491D-01 0.363D+00 0.771D+00
 Coeff:     -0.129D-05 0.983D-07-0.252D-05 0.368D-05 0.845D-04 0.568D-05
 Coeff:     -0.342D-03-0.374D-03 0.298D-03 0.178D-02 0.515D-02 0.105D-02
 Coeff:     -0.180D-01-0.747D-01-0.491D-01 0.363D+00 0.771D+00
 Gap=     0.172 Goal=   None    Shift=    0.000
 Gap=     0.109 Goal=   None    Shift=    0.000
 RMSDP=6.96D-08 MaxDP=6.49D-06 DE=-2.50D-12 OVMax= 1.82D-06

 Cycle  18  Pass 1  IDiag  1:
 RMSU=  2.85D-08    CP:  1.41D+00  3.00D+00  1.13D+00  1.20D+00  8.96D-01
                    CP:  1.78D+00  2.90D+00  1.74D+00  1.32D+00  1.40D+00
                    CP:  1.47D+00  1.24D+00  1.07D+00  1.03D+00  1.05D+00
                    CP:  1.16D+00  9.71D-01
 E= -928.959324030693     Delta-E=       -0.000000000027 Rises=F Damp=F
 DIIS: error= 3.31D-08 at cycle  18 NSaved=  18.
 NSaved=18 IEnMin=18 EnMin= -928.959324030693     IErMin=18 ErrMin= 3.31D-08
 ErrMax= 3.31D-08  0.00D+00 EMaxC= 1.00D-01 BMatC= 1.68D-12 BMatP= 1.09D-11
 IDIUse=1 WtCom= 1.00D+00 WtEn= 0.00D+00
 Coeff-Com:  0.216D-06-0.115D-05-0.185D-05-0.508D-05 0.300D-04 0.463D-04
 Coeff-Com: -0.100D-03-0.248D-03-0.132D-03 0.365D-03 0.286D-02 0.393D-02
 Coeff-Com: -0.478D-02-0.358D-01-0.402D-01 0.462D-01 0.309D+00 0.719D+00
 Coeff:      0.216D-06-0.115D-05-0.185D-05-0.508D-05 0.300D-04 0.463D-04
 Coeff:     -0.100D-03-0.248D-03-0.132D-03 0.365D-03 0.286D-02 0.393D-02
 Coeff:     -0.478D-02-0.358D-01-0.402D-01 0.462D-01 0.309D+00 0.719D+00
 Gap=     0.172 Goal=   None    Shift=    0.000
 Gap=     0.109 Goal=   None    Shift=    0.000
 RMSDP=1.93D-08 MaxDP=9.62D-07 DE=-2.68D-11 OVMax= 6.64D-07

 Cycle  19  Pass 1  IDiag  1:
 RMSU=  1.57D-08    CP:  1.41D+00  3.00D+00  1.13D+00  1.20D+00  8.96D-01
                    CP:  1.78D+00  2.90D+00  1.74D+00  1.32D+00  1.40D+00
                    CP:  1.47D+00  1.24D+00  1.07D+00  1.03D+00  1.06D+00
                    CP:  1.16D+00  1.07D+00  1.03D+00
 E= -928.959324030687     Delta-E=        0.000000000006 Rises=F Damp=F
 DIIS: error= 3.67D-08 at cycle  19 NSaved=  19.
 NSaved=19 IEnMin=18 EnMin= -928.959324030693     IErMin=18 ErrMin= 3.31D-08
 ErrMax= 3.67D-08  0.00D+00 EMaxC= 1.00D-01 BMatC= 1.54D-12 BMatP= 1.68D-12
 IDIUse=1 WtCom= 1.00D+00 WtEn= 0.00D+00
 Coeff-Com:  0.715D-06-0.107D-05-0.525D-06-0.568D-05-0.790D-05 0.382D-04
 Coeff-Com:  0.484D-04-0.649D-04-0.236D-03-0.446D-03 0.447D-03 0.277D-02
 Coeff-Com:  0.294D-02-0.852D-04-0.147D-01-0.109D+00-0.396D-01 0.601D+00
 Coeff-Com:  0.557D+00
 Coeff:      0.715D-06-0.107D-05-0.525D-06-0.568D-05-0.790D-05 0.382D-04
 Coeff:      0.484D-04-0.649D-04-0.236D-03-0.446D-03 0.447D-03 0.277D-02
 Coeff:      0.294D-02-0.852D-04-0.147D-01-0.109D+00-0.396D-01 0.601D+00
 Coeff:      0.557D+00
 Gap=     0.172 Goal=   None    Shift=    0.000
 Gap=     0.109 Goal=   None    Shift=    0.000
 RMSDP=1.17D-08 MaxDP=7.71D-07 DE= 6.37D-12 OVMax= 5.36D-07

 Cycle  20  Pass 1  IDiag  1:
 RMSU=  7.34D-09    CP:  1.41D+00  3.00D+00  1.13D+00  1.20D+00  8.96D-01
                    CP:  1.78D+00  2.90D+00  1.74D+00  1.32D+00  1.40D+00
                    CP:  1.47D+00  1.24D+00  1.07D+00  1.03D+00  1.07D+00
                    CP:  1.17D+00  1.10D+00  1.26D+00  7.86D-01
 E= -928.959324030687     Delta-E=        0.000000000000 Rises=F Damp=F
 DIIS: error= 8.68D-09 at cycle  20 NSaved=  20.
 NSaved=20 IEnMin=18 EnMin= -928.959324030693     IErMin=20 ErrMin= 8.68D-09
 ErrMax= 8.68D-09  0.00D+00 EMaxC= 1.00D-01 BMatC= 7.88D-14 BMatP= 1.54D-12
 IDIUse=1 WtCom= 1.00D+00 WtEn= 0.00D+00
 Coeff-Com:  0.266D-07 0.148D-06 0.430D-06 0.938D-06-0.800D-05-0.361D-05
 Coeff-Com:  0.320D-04 0.449D-04 0.100D-04-0.213D-03-0.469D-03-0.692D-03
 Coeff-Com:  0.135D-02 0.926D-02 0.662D-02-0.318D-01-0.743D-01-0.683D-01
 Coeff-Com:  0.734D-01 0.109D+01
 Coeff:      0.266D-07 0.148D-06 0.430D-06 0.938D-06-0.800D-05-0.361D-05
 Coeff:      0.320D-04 0.449D-04 0.100D-04-0.213D-03-0.469D-03-0.692D-03
 Coeff:      0.135D-02 0.926D-02 0.662D-02-0.318D-01-0.743D-01-0.683D-01
 Coeff:      0.734D-01 0.109D+01
 Gap=     0.172 Goal=   None    Shift=    0.000
 Gap=     0.109 Goal=   None    Shift=    0.000
 RMSDP=1.50D-08 MaxDP=1.91D-06 DE= 0.00D+00 OVMax= 3.69D-07

 Cycle  21  Pass 1  IDiag  1:
 Restarting incremental Fock formation.
 E= -928.959324030686     Delta-E=        0.000000000000 Rises=F Damp=F
 DIIS: error= 4.29D-09 at cycle  21 NSaved=  20.
 NSaved=20 IEnMin=17 EnMin= -928.959324030693     IErMin=20 ErrMin= 4.29D-09
 ErrMax= 4.29D-09  0.00D+00 EMaxC= 1.00D-01 BMatC= 2.07D-14 BMatP= 7.88D-14
 IDIUse=1 WtCom= 1.00D+00 WtEn= 0.00D+00
 Coeff-Com: -0.101D-07-0.139D-06-0.195D-08-0.172D-05-0.254D-05 0.522D-05
 Coeff-Com:  0.148D-04 0.271D-04-0.375D-04-0.757D-04-0.362D-03 0.437D-05
 Coeff-Com:  0.240D-02 0.291D-02 0.449D-02-0.107D-01-0.879D-01-0.490D-01
 Coeff-Com:  0.298D+00 0.840D+00
 Coeff:     -0.101D-07-0.139D-06-0.195D-08-0.172D-05-0.254D-05 0.522D-05
 Coeff:      0.148D-04 0.271D-04-0.375D-04-0.757D-04-0.362D-03 0.437D-05
 Coeff:      0.240D-02 0.291D-02 0.449D-02-0.107D-01-0.879D-01-0.490D-01
 Coeff:      0.298D+00 0.840D+00
 Gap=     0.172 Goal=   None    Shift=    0.000
 Gap=     0.109 Goal=   None    Shift=    0.000
 RMSDP=6.42D-09 MaxDP=9.99D-07 DE= 2.27D-13 OVMax= 1.11D-07

 Error on total polarization charges =  0.00924
 SCF Done:  E(UM06) =  -928.959324031     A.U. after   21 cycles
            NFock= 21  Conv=0.64D-08     -V/T= 2.0075
 <Sx>= 0.0000 <Sy>= 0.0000 <Sz>= 0.5000 <S**2>= 0.7594 S= 0.5047
 <L.S>= 0.000000000000E+00
 KE= 9.220397210998D+02 PE=-3.831405985534D+03 EE= 1.145836428685D+03
 Annihilation of the first spin contaminant:
 S**2 before annihilation     0.7594,   after     0.7500
 Leave Link  502 at Fri Aug  3 03:24:45 2018, MaxMem=  1073741824 cpu:            3158.1 elap:             211.6
 (Enter /shared/apps/gaussian/gaussian-16/g16/l601.exe)
 Copying SCF densities to generalized density rwf, IOpCl= 1 IROHF=0.

 **********************************************************************

            Population analysis using the SCF density.

 **********************************************************************

 Orbital symmetries:
 Alpha Orbitals:
       Occupied  (A) (A) (A) (A) (A) (A) (A) (A) (A) (A) (A) (A)
                 (A) (A) (A) (A) (A) (A) (A) (A) (A) (A) (A) (A)
                 (A) (A) (A) (A) (A) (A) (A) (A) (A) (A) (A) (A)
                 (A) (A) (A) (A) (A) (A) (A) (A) (A) (A) (A) (A)
       Virtual   (A) (A) (A) (A) (A) (A) (A) (A) (A) (A) (A) (A)
                 (A) (A) (A) (A) (A) (A) (A) (A) (A) (A) (A) (A)
                 (A) (A) (A) (A) (A) (A) (A) (A) (A) (A) (A) (A)
                 (A) (A) (A) (A) (A) (A) (A) (A) (A) (A) (A) (A)
                 (A) (A) (A) (A) (A) (A) (A) (A) (A) (A) (A) (A)
                 (A) (A) (A) (A) (A) (A) (A) (A) (A) (A) (A) (A)
                 (A) (A) (A) (A) (A) (A) (A) (A) (A) (A) (A) (A)
                 (A) (A) (A) (A) (A) (A) (A) (A) (A) (A) (A) (A)
                 (A) (A) (A) (A) (A) (A) (A) (A) (A) (A) (A) (A)
                 (A) (A) (A) (A) (A) (A) (A) (A) (A) (A) (A) (A)
                 (A) (A) (A) (A) (A) (A) (A) (A) (A) (A) (A) (A)
                 (A) (A) (A) (A) (A) (A) (A) (A) (A) (A) (A) (A)
                 (A) (A) (A) (A) (A) (A) (A) (A) (A) (A) (A) (A)
                 (A) (A) (A) (A) (A) (A) (A) (A) (A) (A) (A) (A)
                 (A) (A) (A) (A) (A) (A) (A) (A) (A) (A) (A) (A)
                 (A) (A) (A) (A) (A) (A) (A) (A) (A) (A) (A) (A)
                 (A) (A) (A) (A) (A) (A) (A) (A) (A) (A) (A) (A)
                 (A) (A) (A) (A) (A) (A) (A) (A) (A) (A) (A) (A)
                 (A) (A) (A) (A) (A) (A) (A) (A)
 Beta  Orbitals:
       Occupied  (A) (A) (A) (A) (A) (A) (A) (A) (A) (A) (A) (A)
                 (A) (A) (A) (A) (A) (A) (A) (A) (A) (A) (A) (A)
                 (A) (A) (A) (A) (A) (A) (A) (A) (A) (A) (A) (A)
                 (A) (A) (A) (A) (A) (A) (A) (A) (A) (A) (A)
       Virtual   (A) (A) (A) (A) (A) (A) (A) (A) (A) (A) (A) (A)
                 (A) (A) (A) (A) (A) (A) (A) (A) (A) (A) (A) (A)
                 (A) (A) (A) (A) (A) (A) (A) (A) (A) (A) (A) (A)
                 (A) (A) (A) (A) (A) (A) (A) (A) (A) (A) (A) (A)
                 (A) (A) (A) (A) (A) (A) (A) (A) (A) (A) (A) (A)
                 (A) (A) (A) (A) (A) (A) (A) (A) (A) (A) (A) (A)
                 (A) (A) (A) (A) (A) (A) (A) (A) (A) (A) (A) (A)
                 (A) (A) (A) (A) (A) (A) (A) (A) (A) (A) (A) (A)
                 (A) (A) (A) (A) (A) (A) (A) (A) (A) (A) (A) (A)
                 (A) (A) (A) (A) (A) (A) (A) (A) (A) (A) (A) (A)
                 (A) (A) (A) (A) (A) (A) (A) (A) (A) (A) (A) (A)
                 (A) (A) (A) (A) (A) (A) (A) (A) (A) (A) (A) (A)
                 (A) (A) (A) (A) (A) (A) (A) (A) (A) (A) (A) (A)
                 (A) (A) (A) (A) (A) (A) (A) (A) (A) (A) (A) (A)
                 (A) (A) (A) (A) (A) (A) (A) (A) (A) (A) (A) (A)
                 (A) (A) (A) (A) (A) (A) (A) (A) (A) (A) (A) (A)
                 (A) (A) (A) (A) (A) (A) (A) (A) (A) (A) (A) (A)
                 (A) (A) (A) (A) (A) (A) (A) (A) (A) (A) (A) (A)
                 (A) (A) (A) (A) (A) (A) (A) (A) (A)
 The electronic state is 2-A.
 Alpha  occ. eigenvalues --  -89.34068 -19.30155 -19.30154 -14.59359 -14.59293
 Alpha  occ. eigenvalues --  -10.42671 -10.39878 -10.39673 -10.38629 -10.37006
 Alpha  occ. eigenvalues --  -10.31048 -10.29770  -8.31126  -6.22830  -6.22823
 Alpha  occ. eigenvalues --   -6.22752  -1.24652  -1.19826  -1.09413  -0.98043
 Alpha  occ. eigenvalues --   -0.89309  -0.83580  -0.79000  -0.77137  -0.71505
 Alpha  occ. eigenvalues --   -0.71295  -0.66486  -0.63503  -0.61435  -0.56396
 Alpha  occ. eigenvalues --   -0.54986  -0.54114  -0.52995  -0.51900  -0.49301
 Alpha  occ. eigenvalues --   -0.49025  -0.48393  -0.47837  -0.45467  -0.44439
 Alpha  occ. eigenvalues --   -0.44190  -0.43842  -0.40559  -0.40534  -0.38112
 Alpha  occ. eigenvalues --   -0.37339  -0.37105  -0.32242
 Alpha virt. eigenvalues --   -0.15071  -0.13120  -0.03211  -0.03119  -0.02799
 Alpha virt. eigenvalues --   -0.01876  -0.01085  -0.00483  -0.00199  -0.00095
 Alpha virt. eigenvalues --    0.00465   0.00535   0.01376   0.02284   0.02401
 Alpha virt. eigenvalues --    0.02578   0.03908   0.04466   0.04858   0.05389
 Alpha virt. eigenvalues --    0.06079   0.06861   0.06883   0.08347   0.08354
 Alpha virt. eigenvalues --    0.09289   0.10144   0.10723   0.10803   0.11429
 Alpha virt. eigenvalues --    0.11431   0.12198   0.13681   0.13728   0.13779
 Alpha virt. eigenvalues --    0.14886   0.15271   0.15669   0.16576   0.17046
 Alpha virt. eigenvalues --    0.17199   0.17634   0.17791   0.18762   0.18936
 Alpha virt. eigenvalues --    0.19541   0.20000   0.20294   0.20973   0.21454
 Alpha virt. eigenvalues --    0.23056   0.23166   0.23429   0.24169   0.25017
 Alpha virt. eigenvalues --    0.25438   0.25757   0.27595   0.27758   0.28800
 Alpha virt. eigenvalues --    0.28981   0.29599   0.30873   0.32065   0.33259
 Alpha virt. eigenvalues --    0.33401   0.34886   0.35374   0.36997   0.37969
 Alpha virt. eigenvalues --    0.40168   0.44651   0.48334   0.50564   0.54675
 Alpha virt. eigenvalues --    0.55770   0.57331   0.59639   0.60232   0.62313
 Alpha virt. eigenvalues --    0.62810   0.64009   0.66048   0.66147   0.68485
 Alpha virt. eigenvalues --    0.70107   0.70279   0.70594   0.72728   0.73246
 Alpha virt. eigenvalues --    0.76675   0.77375   0.78420   0.80954   0.81068
 Alpha virt. eigenvalues --    0.82879   0.86043   0.87394   0.88811   0.89875
 Alpha virt. eigenvalues --    0.90124   0.91717   0.91734   0.94420   0.95122
 Alpha virt. eigenvalues --    0.95607   0.97332   0.98046   1.00639   1.02207
 Alpha virt. eigenvalues --    1.04736   1.05343   1.07006   1.07417   1.08626
 Alpha virt. eigenvalues --    1.10215   1.14085   1.15429   1.17477   1.20863
 Alpha virt. eigenvalues --    1.21979   1.22856   1.23442   1.23948   1.26983
 Alpha virt. eigenvalues --    1.30005   1.32173   1.32333   1.34476   1.38396
 Alpha virt. eigenvalues --    1.39705   1.40971   1.43020   1.44393   1.48113
 Alpha virt. eigenvalues --    1.48729   1.52437   1.52824   1.60865   1.63502
 Alpha virt. eigenvalues --    1.65206   1.68511   1.69852   1.71784   1.72028
 Alpha virt. eigenvalues --    1.74755   1.75422   1.78205   1.78385   1.78765
 Alpha virt. eigenvalues --    1.80799   1.82258   1.85979   1.87454   1.89465
 Alpha virt. eigenvalues --    1.90452   1.94336   1.95631   1.97460   1.98511
 Alpha virt. eigenvalues --    1.99207   2.01442   2.01628   2.03698   2.04058
 Alpha virt. eigenvalues --    2.06601   2.07497   2.10402   2.11677   2.12969
 Alpha virt. eigenvalues --    2.16343   2.16360   2.22429   2.24866   2.26581
 Alpha virt. eigenvalues --    2.29817   2.31163   2.32171   2.36122   2.37261
 Alpha virt. eigenvalues --    2.41000   2.42930   2.43915   2.46829   2.49363
 Alpha virt. eigenvalues --    2.49820   2.53640   2.57025   2.58215   2.64508
 Alpha virt. eigenvalues --    2.67491   2.67853   2.71704   2.73843   2.77677
 Alpha virt. eigenvalues --    2.81629   2.81852   2.85350   2.86808   2.87039
 Alpha virt. eigenvalues --    2.92713   2.92985   3.00140   3.09945   3.19905
 Alpha virt. eigenvalues --    3.23149   3.23556   3.34184   3.37385   3.37827
 Alpha virt. eigenvalues --    3.40635   3.49403   3.88814   3.90758   4.07390
 Alpha virt. eigenvalues --    4.13605   4.16709   4.21495   4.27042   4.34688
 Alpha virt. eigenvalues --    4.38817   4.49844   4.55292   4.62469
  Beta  occ. eigenvalues --  -89.34078 -19.30130 -19.30128 -14.59140 -14.59071
  Beta  occ. eigenvalues --  -10.42597 -10.39635 -10.39317 -10.38465 -10.36949
  Beta  occ. eigenvalues --  -10.31056 -10.29773  -8.31137  -6.22841  -6.22840
  Beta  occ. eigenvalues --   -6.22770  -1.23980  -1.19761  -1.09339  -0.97304
  Beta  occ. eigenvalues --   -0.88474  -0.83176  -0.78762  -0.76873  -0.71077
  Beta  occ. eigenvalues --   -0.70510  -0.65878  -0.63073  -0.60903  -0.56138
  Beta  occ. eigenvalues --   -0.54606  -0.53632  -0.52721  -0.51660  -0.48874
  Beta  occ. eigenvalues --   -0.47911  -0.47864  -0.47076  -0.45300  -0.44117
  Beta  occ. eigenvalues --   -0.43613  -0.42851  -0.40482  -0.40144  -0.37692
  Beta  occ. eigenvalues --   -0.36723  -0.34997
  Beta virt. eigenvalues --   -0.24086  -0.13186  -0.12323  -0.03163  -0.02638
  Beta virt. eigenvalues --   -0.01770  -0.01366  -0.00890  -0.00316  -0.00090
  Beta virt. eigenvalues --    0.00009   0.00769   0.00850   0.01549   0.02560
  Beta virt. eigenvalues --    0.02659   0.02710   0.04329   0.04673   0.04908
  Beta virt. eigenvalues --    0.05713   0.06172   0.06984   0.07824   0.08428
  Beta virt. eigenvalues --    0.08543   0.09307   0.10174   0.10984   0.10987
  Beta virt. eigenvalues --    0.11514   0.11681   0.12811   0.13827   0.13928
  Beta virt. eigenvalues --    0.14338   0.15020   0.15330   0.15851   0.16624
  Beta virt. eigenvalues --    0.17134   0.17415   0.17905   0.17958   0.18901
  Beta virt. eigenvalues --    0.19122   0.19655   0.20239   0.20532   0.21047
  Beta virt. eigenvalues --    0.21551   0.23176   0.23251   0.23627   0.24385
  Beta virt. eigenvalues --    0.25332   0.25515   0.26192   0.27633   0.28038
  Beta virt. eigenvalues --    0.28835   0.29252   0.29857   0.31186   0.32339
  Beta virt. eigenvalues --    0.33456   0.33478   0.35002   0.35922   0.37387
  Beta virt. eigenvalues --    0.38152   0.40199   0.45352   0.48994   0.50836
  Beta virt. eigenvalues --    0.55545   0.55831   0.57377   0.59933   0.60610
  Beta virt. eigenvalues --    0.62518   0.63289   0.64146   0.66242   0.66378
  Beta virt. eigenvalues --    0.68859   0.70545   0.70626   0.70948   0.73358
  Beta virt. eigenvalues --    0.74005   0.76893   0.77810   0.78922   0.80966
  Beta virt. eigenvalues --    0.81271   0.83253   0.86287   0.87924   0.89067
  Beta virt. eigenvalues --    0.90352   0.90492   0.91988   0.92145   0.94612
  Beta virt. eigenvalues --    0.95224   0.95694   0.97660   0.98399   1.00978
  Beta virt. eigenvalues --    1.02684   1.05041   1.05380   1.07486   1.07781
  Beta virt. eigenvalues --    1.09103   1.10590   1.14392   1.15756   1.18187
  Beta virt. eigenvalues --    1.21374   1.22696   1.23137   1.23793   1.24301
  Beta virt. eigenvalues --    1.27329   1.30353   1.32337   1.32497   1.34584
  Beta virt. eigenvalues --    1.38674   1.39979   1.41101   1.43192   1.45156
  Beta virt. eigenvalues --    1.49040   1.49233   1.52984   1.53065   1.61396
  Beta virt. eigenvalues --    1.64045   1.65413   1.69788   1.70556   1.72381
  Beta virt. eigenvalues --    1.72669   1.75513   1.76152   1.78282   1.78915
  Beta virt. eigenvalues --    1.79274   1.81258   1.82693   1.86204   1.88219
  Beta virt. eigenvalues --    1.90107   1.90791   1.94815   1.96335   1.97781
  Beta virt. eigenvalues --    1.99242   1.99364   2.01713   2.02216   2.04017
  Beta virt. eigenvalues --    2.05273   2.07035   2.07986   2.12002   2.12349
  Beta virt. eigenvalues --    2.13450   2.16970   2.16994   2.23327   2.25695
  Beta virt. eigenvalues --    2.27465   2.30752   2.31443   2.32976   2.37428
  Beta virt. eigenvalues --    2.37816   2.41561   2.43633   2.44351   2.47742
  Beta virt. eigenvalues --    2.49885   2.50489   2.54518   2.57588   2.59147
  Beta virt. eigenvalues --    2.65667   2.68517   2.68543   2.72162   2.74641
  Beta virt. eigenvalues --    2.77930   2.82259   2.82624   2.86494   2.87053
  Beta virt. eigenvalues --    2.87656   2.93254   2.93949   3.00747   3.11988
  Beta virt. eigenvalues --    3.19642   3.22921   3.23685   3.34917   3.37746
  Beta virt. eigenvalues --    3.38126   3.40778   3.48791   3.89044   3.91817
  Beta virt. eigenvalues --    4.08163   4.13683   4.17912   4.22521   4.27555
  Beta virt. eigenvalues --    4.35670   4.39257   4.50289   4.55924   4.62813
          Condensed to atoms (all electrons):
               1          2          3          4          5          6
     1  C    8.467152  -1.473401  -1.771037   0.710464   0.223802  -1.223639
     2  C   -1.473401   9.385627  -2.271947   2.035902   1.465375  -2.301584
     3  C   -1.771037  -2.271947  12.209295  -4.990823  -0.880377   3.719824
     4  C    0.710464   2.035902  -4.990823  16.022380 -10.642255   1.686268
     5  C    0.223802   1.465375  -0.880377 -10.642255  41.958836 -21.025858
     6  C   -1.223639  -2.301584   3.719824   1.686268 -21.025858  24.056233
     7  C   -0.066924  -0.217078   0.056649   1.376689  -5.681276   1.926714
     8  N   -0.004258  -0.040571   0.092201   0.020122  -0.173537   0.435541
     9  N   -0.004272  -0.040593   0.092231   0.020289  -0.173693   0.435348
    10  S    0.294079  -0.259039  -0.116845  -1.220535   1.349073  -1.034950
    11  O   -0.078207  -0.066775  -0.005234   0.117659   0.041577  -0.160354
    12  O   -0.078720  -0.067284  -0.005442   0.118103   0.040811  -0.160843
    13  H    0.393654  -0.021150  -0.044593   0.009124  -0.007325  -0.001992
    14  H    0.394159  -0.021514  -0.044561   0.009094  -0.007348  -0.001977
    15  H    0.513758  -0.224415   0.057495   0.004578  -0.006206  -0.000611
    16  H   -0.019979   0.129769   0.151337   0.070623  -0.032624   0.005082
    17  H    0.003103  -0.034175   0.059616   0.077191   0.224983  -0.049071
    18  H    0.000088   0.004088   0.000993  -0.016442   0.068029  -0.018614
    19  H    0.000287   0.001630  -0.001524   0.005193   0.056284  -0.166213
    20  H    0.000091   0.004106   0.000988  -0.016462   0.068280  -0.018796
               7          8          9         10         11         12
     1  C   -0.066924  -0.004258  -0.004272   0.294079  -0.078207  -0.078720
     2  C   -0.217078  -0.040571  -0.040593  -0.259039  -0.066775  -0.067284
     3  C    0.056649   0.092201   0.092231  -0.116845  -0.005234  -0.005442
     4  C    1.376689   0.020122   0.020289  -1.220535   0.117659   0.118103
     5  C   -5.681276  -0.173537  -0.173693   1.349073   0.041577   0.040811
     6  C    1.926714   0.435541   0.435348  -1.034950  -0.160354  -0.160843
     7  C    8.475607  -0.228121  -0.228034  -0.344994  -0.020173  -0.020128
     8  N   -0.228121   6.233373   0.471759   0.004074  -0.000195  -0.000187
     9  N   -0.228034   0.471759   6.233490   0.004008  -0.000201  -0.000208
    10  S   -0.344994   0.004074   0.004008  15.923958   0.284663   0.285770
    11  O   -0.020173  -0.000195  -0.000201   0.284663   8.635403  -0.263441
    12  O   -0.020128  -0.000187  -0.000208   0.285770  -0.263441   8.636237
    13  H    0.000279  -0.000010   0.000014   0.015302  -0.002555   0.006829
    14  H    0.000275   0.000014  -0.000010   0.015074   0.006799  -0.002548
    15  H   -0.000062  -0.000004  -0.000004   0.011694  -0.000199  -0.000197
    16  H   -0.000109   0.000022   0.000023   0.019692  -0.000518  -0.000519
    17  H    0.008835   0.001140   0.001140   0.027151  -0.000353  -0.000354
    18  H    0.298282  -0.010749   0.011001   0.014868  -0.000785  -0.001712
    19  H    0.467805   0.000223   0.000191  -0.002322   0.000159   0.000159
    20  H    0.298296   0.010968  -0.010716   0.014882  -0.001706  -0.000780
              13         14         15         16         17         18
     1  C    0.393654   0.394159   0.513758  -0.019979   0.003103   0.000088
     2  C   -0.021150  -0.021514  -0.224415   0.129769  -0.034175   0.004088
     3  C   -0.044593  -0.044561   0.057495   0.151337   0.059616   0.000993
     4  C    0.009124   0.009094   0.004578   0.070623   0.077191  -0.016442
     5  C   -0.007325  -0.007348  -0.006206  -0.032624   0.224983   0.068029
     6  C   -0.001992  -0.001977  -0.000611   0.005082  -0.049071  -0.018614
     7  C    0.000279   0.000275  -0.000062  -0.000109   0.008835   0.298282
     8  N   -0.000010   0.000014  -0.000004   0.000022   0.001140  -0.010749
     9  N    0.000014  -0.000010  -0.000004   0.000023   0.001140   0.011001
    10  S    0.015302   0.015074   0.011694   0.019692   0.027151   0.014868
    11  O   -0.002555   0.006799  -0.000199  -0.000518  -0.000353  -0.000785
    12  O    0.006829  -0.002548  -0.000197  -0.000519  -0.000354  -0.001712
    13  H    0.443887  -0.018659  -0.017792   0.000059   0.000001   0.000000
    14  H   -0.018659   0.443891  -0.017768   0.000060   0.000001  -0.000000
    15  H   -0.017792  -0.017768   0.445929   0.000635   0.000001   0.000000
    16  H    0.000059   0.000060   0.000635   0.417982  -0.002385   0.000000
    17  H    0.000001   0.000001   0.000001  -0.002385   0.419842  -0.000003
    18  H    0.000000  -0.000000   0.000000   0.000000  -0.000003   0.458722
    19  H    0.000000   0.000000  -0.000000  -0.000000   0.000000  -0.017306
    20  H   -0.000000   0.000000   0.000000   0.000000  -0.000003  -0.020960
              19         20
     1  C    0.000287   0.000091
     2  C    0.001630   0.004106
     3  C   -0.001524   0.000988
     4  C    0.005193  -0.016462
     5  C    0.056284   0.068280
     6  C   -0.166213  -0.018796
     7  C    0.467805   0.298296
     8  N    0.000223   0.010968
     9  N    0.000191  -0.010716
    10  S   -0.002322   0.014882
    11  O    0.000159  -0.001706
    12  O    0.000159  -0.000780
    13  H    0.000000  -0.000000
    14  H    0.000000   0.000000
    15  H   -0.000000   0.000000
    16  H   -0.000000   0.000000
    17  H    0.000000  -0.000003
    18  H   -0.017306  -0.020960
    19  H    0.458680  -0.017312
    20  H   -0.017312   0.458542
          Atomic-Atomic Spin Densities.
               1          2          3          4          5          6
     1  C    0.050764  -0.029978  -0.039816   0.014970  -0.007245  -0.014501
     2  C   -0.029978   0.380261   0.015596  -0.014254   0.041064  -0.059979
     3  C   -0.039816   0.015596   0.074076   0.007080  -0.124308   0.113213
     4  C    0.014970  -0.014254   0.007080   0.008471   0.247354  -0.140967
     5  C   -0.007245   0.041064  -0.124308   0.247354   0.112745  -0.071803
     6  C   -0.014501  -0.059979   0.113213  -0.140967  -0.071803   0.188153
     7  C   -0.000800  -0.003620   0.018437  -0.034155   0.095997  -0.013455
     8  N   -0.000032  -0.000152  -0.002928   0.010051  -0.013566   0.016361
     9  N   -0.000030  -0.000152  -0.002915   0.009998  -0.013585   0.016417
    10  S   -0.001887  -0.011569  -0.000719   0.018460  -0.043729   0.019446
    11  O    0.000449  -0.002257   0.001144   0.000809   0.000352  -0.001060
    12  O    0.000449  -0.002288   0.001188   0.000723   0.000318  -0.000987
    13  H    0.008493  -0.007087  -0.000896  -0.000064   0.000174  -0.000025
    14  H    0.008622  -0.007216  -0.000872  -0.000074   0.000175  -0.000026
    15  H    0.001911  -0.001650  -0.000072   0.000703  -0.000596  -0.000031
    16  H    0.001367  -0.000552  -0.000911   0.002107  -0.002064   0.000006
    17  H   -0.000194  -0.001622   0.003455   0.003528  -0.010945   0.006811
    18  H    0.000002  -0.000146  -0.000023   0.000120   0.000287  -0.002492
    19  H    0.000002   0.000048   0.000001  -0.000064   0.001288  -0.000074
    20  H    0.000001  -0.000146  -0.000025   0.000140   0.000287  -0.002489
               7          8          9         10         11         12
     1  C   -0.000800  -0.000032  -0.000030  -0.001887   0.000449   0.000449
     2  C   -0.003620  -0.000152  -0.000152  -0.011569  -0.002257  -0.002288
     3  C    0.018437  -0.002928  -0.002915  -0.000719   0.001144   0.001188
     4  C   -0.034155   0.010051   0.009998   0.018460   0.000809   0.000723
     5  C    0.095997  -0.013566  -0.013585  -0.043729   0.000352   0.000318
     6  C   -0.013455   0.016361   0.016417   0.019446  -0.001060  -0.000987
     7  C   -0.090440   0.004403   0.004379  -0.003442  -0.000651  -0.000678
     8  N    0.004403   0.130963  -0.029700  -0.000463  -0.000452   0.000389
     9  N    0.004379  -0.029700   0.131004  -0.000444   0.000390  -0.000453
    10  S   -0.003442  -0.000463  -0.000444  -0.020528   0.010191   0.010257
    11  O   -0.000651  -0.000452   0.000390   0.010191  -0.003434   0.007140
    12  O   -0.000678   0.000389  -0.000453   0.010257   0.007140  -0.003448
    13  H    0.000004   0.000002  -0.000002   0.001117  -0.000173   0.000628
    14  H    0.000004  -0.000002   0.000002   0.001113   0.000628  -0.000172
    15  H   -0.000002  -0.000000  -0.000000  -0.000128   0.000008   0.000008
    16  H   -0.000015   0.000003   0.000004  -0.000441  -0.000002  -0.000002
    17  H   -0.000161  -0.000047  -0.000047  -0.001298  -0.000014  -0.000014
    18  H    0.003527  -0.000547   0.000323   0.000054  -0.000542   0.000072
    19  H   -0.001203   0.000062   0.000061  -0.000059   0.000001   0.000001
    20  H    0.003519   0.000322  -0.000545   0.000040   0.000071  -0.000541
              13         14         15         16         17         18
     1  C    0.008493   0.008622   0.001911   0.001367  -0.000194   0.000002
     2  C   -0.007087  -0.007216  -0.001650  -0.000552  -0.001622  -0.000146
     3  C   -0.000896  -0.000872  -0.000072  -0.000911   0.003455  -0.000023
     4  C   -0.000064  -0.000074   0.000703   0.002107   0.003528   0.000120
     5  C    0.000174   0.000175  -0.000596  -0.002064  -0.010945   0.000287
     6  C   -0.000025  -0.000026  -0.000031   0.000006   0.006811  -0.002492
     7  C    0.000004   0.000004  -0.000002  -0.000015  -0.000161   0.003527
     8  N    0.000002  -0.000002  -0.000000   0.000003  -0.000047  -0.000547
     9  N   -0.000002   0.000002  -0.000000   0.000004  -0.000047   0.000323
    10  S    0.001117   0.001113  -0.000128  -0.000441  -0.001298   0.000054
    11  O   -0.000173   0.000628   0.000008  -0.000002  -0.000014  -0.000542
    12  O    0.000628  -0.000172   0.000008  -0.000002  -0.000014   0.000072
    13  H    0.021391  -0.003963  -0.000101  -0.000003  -0.000000  -0.000000
    14  H   -0.003963   0.021512  -0.000115  -0.000003  -0.000000   0.000000
    15  H   -0.000101  -0.000115  -0.000649   0.000026  -0.000000  -0.000000
    16  H   -0.000003  -0.000003   0.000026  -0.002797  -0.000025  -0.000000
    17  H   -0.000000  -0.000000  -0.000000  -0.000025  -0.006586  -0.000000
    18  H   -0.000000   0.000000  -0.000000  -0.000000  -0.000000   0.007426
    19  H   -0.000000  -0.000000   0.000000   0.000000   0.000000   0.000005
    20  H    0.000000  -0.000000  -0.000000  -0.000000  -0.000000  -0.001524
              19         20
     1  C    0.000002   0.000001
     2  C    0.000048  -0.000146
     3  C    0.000001  -0.000025
     4  C   -0.000064   0.000140
     5  C    0.001288   0.000287
     6  C   -0.000074  -0.002489
     7  C   -0.001203   0.003519
     8  N    0.000062   0.000322
     9  N    0.000061  -0.000545
    10  S   -0.000059   0.000040
    11  O    0.000001   0.000071
    12  O    0.000001  -0.000541
    13  H   -0.000000   0.000000
    14  H   -0.000000  -0.000000
    15  H    0.000000  -0.000000
    16  H    0.000000  -0.000000
    17  H    0.000000  -0.000000
    18  H    0.000005  -0.001524
    19  H   -0.000488   0.000006
    20  H    0.000006   0.007408
 Mulliken charges and spin densities:
               1          2
     1  C   -0.280203  -0.007455
     2  C    0.013031   0.294299
     3  C   -0.308245   0.060707
     4  C    0.602839   0.134935
     5  C   -0.866552   0.212201
     6  C   -0.100507   0.052517
     7  C   -0.102530  -0.018352
     8  N    0.188195   0.114669
     9  N    0.188236   0.114707
    10  S    0.714398  -0.024028
    11  O   -0.485565   0.012598
    12  O   -0.485547   0.012590
    13  H    0.244927   0.019495
    14  H    0.245018   0.019613
    15  H    0.233169  -0.000688
    16  H    0.260851  -0.003301
    17  H    0.263337  -0.007160
    18  H    0.230500   0.006543
    19  H    0.214066  -0.000414
    20  H    0.230584   0.006525
 Sum of Mulliken charges =   1.00000   1.00000
 Mulliken charges and spin densities with hydrogens summed into heavy atoms:
               1          2
     1  C    0.442912   0.030965
     2  C    0.013031   0.294299
     3  C   -0.047394   0.057406
     4  C    0.866176   0.127776
     5  C   -0.866552   0.212201
     6  C   -0.100507   0.052517
     7  C    0.572619  -0.005699
     8  N    0.188195   0.114669
     9  N    0.188236   0.114707
    10  S    0.714398  -0.024028
    11  O   -0.485565   0.012598
    12  O   -0.485547   0.012590
 Electronic spatial extent (au):  <R**2>=           2059.0300
 Charge=              1.0000 electrons
 Dipole moment (field-independent basis, Debye):
    X=             -1.2109    Y=              7.1913    Z=             -0.0002  Tot=              7.2925
 Quadrupole moment (field-independent basis, Debye-Ang):
[...]
     7  C   -0.001037  -0.005964   0.029804  -0.065093   0.147256  -0.009457
     8  N   -0.000064  -0.000206  -0.004024   0.014406  -0.027939   0.025457
     9  N   -0.000061  -0.000204  -0.004017   0.014376  -0.027915   0.025467
    10  S   -0.001826  -0.006368  -0.015149   0.036223  -0.049916   0.018013
    11  O    0.000305  -0.003776   0.001503   0.001331   0.001247  -0.001445
    12  O    0.000323  -0.003786   0.001512   0.001312   0.001237  -0.001432
    13  H    0.009945  -0.009429  -0.000932  -0.000083   0.000218  -0.000047
    14  H    0.009964  -0.009460  -0.000909  -0.000093   0.000224  -0.000045
    15  H    0.002285  -0.001884  -0.000193   0.000885  -0.000694  -0.000042
    16  H    0.000972   0.000592  -0.002743   0.003094  -0.002243  -0.000025
    17  H   -0.000204  -0.001831   0.003938   0.003266  -0.013089   0.009434
    18  H    0.000001  -0.000178  -0.000017   0.000166   0.000327  -0.003040
    19  H    0.000005   0.000076  -0.000010  -0.000125   0.002512  -0.001112
    20  H    0.000001  -0.000178  -0.000019   0.000173   0.000331  -0.003055
               7          8          9         10         11         12
     1  C   -0.001037  -0.000064  -0.000061  -0.001826   0.000305   0.000323
     2  C   -0.005964  -0.000206  -0.000204  -0.006368  -0.003776  -0.003786
     3  C    0.029804  -0.004024  -0.004017  -0.015149   0.001503   0.001512
     4  C   -0.065093   0.014406   0.014376   0.036223   0.001331   0.001312
     5  C    0.147256  -0.027939  -0.027915  -0.049916   0.001247   0.001237
     6  C   -0.009457   0.025457   0.025467   0.018013  -0.001445  -0.001432
     7  C   -0.139440   0.008210   0.008184   0.000620  -0.000775  -0.000784
     8  N    0.008210   0.146195  -0.035494  -0.000996  -0.000347   0.000289
     9  N    0.008184  -0.035494   0.146196  -0.000987   0.000289  -0.000347
    10  S    0.000620  -0.000996  -0.000987  -0.013738   0.008023   0.008029
    11  O   -0.000775  -0.000347   0.000289   0.008023  -0.004764   0.004721
    12  O   -0.000784   0.000289  -0.000347   0.008029   0.004721  -0.004768
    13  H    0.000006   0.000003  -0.000003   0.001252  -0.000250   0.000767
    14  H    0.000005  -0.000003   0.000003   0.001248   0.000768  -0.000250
    15  H   -0.000003  -0.000000  -0.000000  -0.000242   0.000009   0.000009
    16  H   -0.000025   0.000005   0.000005   0.000006  -0.000004  -0.000004
    17  H   -0.000119  -0.000079  -0.000079  -0.001704  -0.000018  -0.000018
    18  H    0.003683  -0.000985   0.000683   0.000150  -0.000525   0.000082
    19  H   -0.001424   0.000082   0.000081  -0.000022   0.000001   0.000001
    20  H    0.003694   0.000683  -0.000985   0.000144   0.000082  -0.000526
              13         14         15         16         17         18
     1  C    0.009945   0.009964   0.002285   0.000972  -0.000204   0.000001
     2  C   -0.009429  -0.009460  -0.001884   0.000592  -0.001831  -0.000178
     3  C   -0.000932  -0.000909  -0.000193  -0.002743   0.003938  -0.000017
     4  C   -0.000083  -0.000093   0.000885   0.003094   0.003266   0.000166
     5  C    0.000218   0.000224  -0.000694  -0.002243  -0.013089   0.000327
     6  C   -0.000047  -0.000045  -0.000042  -0.000025   0.009434  -0.003040
     7  C    0.000006   0.000005  -0.000003  -0.000025  -0.000119   0.003683
     8  N    0.000003  -0.000003  -0.000000   0.000005  -0.000079  -0.000985
     9  N   -0.000003   0.000003  -0.000000   0.000005  -0.000079   0.000683
    10  S    0.001252   0.001248  -0.000242   0.000006  -0.001704   0.000150
    11  O   -0.000250   0.000768   0.000009  -0.000004  -0.000018  -0.000525
    12  O    0.000767  -0.000250   0.000009  -0.000004  -0.000018   0.000082
    13  H    0.024933  -0.004859  -0.000118  -0.000004  -0.000000  -0.000000
    14  H   -0.004859   0.024992  -0.000127  -0.000004  -0.000000   0.000000
    15  H   -0.000118  -0.000127  -0.000534   0.000035  -0.000000  -0.000000
    16  H   -0.000004  -0.000004   0.000035  -0.000540  -0.000035  -0.000000
    17  H   -0.000000  -0.000000  -0.000000  -0.000035  -0.007841  -0.000000
    18  H   -0.000000   0.000000  -0.000000  -0.000000  -0.000000   0.009094
    19  H   -0.000000  -0.000000   0.000000   0.000000   0.000000   0.000007
    20  H    0.000000  -0.000000  -0.000000   0.000000  -0.000000  -0.001931
              19         20
     1  C    0.000005   0.000001
     2  C    0.000076  -0.000178
     3  C   -0.000010  -0.000019
     4  C   -0.000125   0.000173
     5  C    0.002512   0.000331
     6  C   -0.001112  -0.003055
     7  C   -0.001424   0.003694
     8  N    0.000082   0.000683
     9  N    0.000081  -0.000985
    10  S   -0.000022   0.000144
    11  O    0.000001   0.000082
    12  O    0.000001  -0.000526
    13  H   -0.000000   0.000000
    14  H   -0.000000  -0.000000
    15  H    0.000000  -0.000000
    16  H    0.000000   0.000000
    17  H    0.000000  -0.000000
    18  H    0.000007  -0.001931
    19  H   -0.000458   0.000007
    20  H    0.000007   0.009090
 Mulliken charges and spin densities:
               1          2
     1  C   -0.274687  -0.010579
     2  C   -0.039574   0.336082
     3  C   -0.331953  -0.000308
     4  C    0.559989   0.170201
     5  C   -1.096857   0.160056
     6  C    0.057909   0.073731
     7  C   -0.031218  -0.022660
     8  N    0.208808   0.125192
     9  N    0.208796   0.125193
    10  S    0.793004  -0.017241
    11  O   -0.483075   0.006375
    12  O   -0.483144   0.006368
    13  H    0.241282   0.021400
    14  H    0.241368   0.021455
    15  H    0.230972  -0.000614
    16  H    0.255133  -0.000917
    17  H    0.256588  -0.008382
    18  H    0.234380   0.007514
    19  H    0.217917  -0.000379
    20  H    0.234361   0.007510
 Sum of Mulliken charges =   1.00000   1.00000
 Mulliken charges and spin densities with hydrogens summed into heavy atoms:
               1          2
     1  C    0.438936   0.031662
     2  C   -0.039574   0.336082
     3  C   -0.076820  -0.001225
     4  C    0.816576   0.161819
     5  C   -1.096857   0.160056
     6  C    0.057909   0.073731
     7  C    0.655440  -0.008014
     8  N    0.208808   0.125192
     9  N    0.208796   0.125193
    10  S    0.793004  -0.017241
    11  O   -0.483075   0.006375
    12  O   -0.483144   0.006368
 Electronic spatial extent (au):  <R**2>=           2058.5422
 Charge=              1.0000 electrons
 Dipole moment (field-independent basis, Debye):
    X=             -0.2530    Y=              6.8788    Z=              0.0001  Tot=              6.8834
 Quadrupole moment (field-independent basis, Debye-Ang):
   XX=            -38.6563   YY=            -61.3250   ZZ=            -80.1140
   XY=            -10.4572   XZ=             -0.0010   YZ=             -0.0022
 Traceless Quadrupole moment (field-independent basis, Debye-Ang):
   XX=             21.3755   YY=             -1.2932   ZZ=            -20.0823
   XY=            -10.4572   XZ=             -0.0010   YZ=             -0.0022
 Octapole moment (field-independent basis, Debye-Ang**2):
  XXX=            -35.8723  YYY=             33.9154  ZZZ=              0.0054  XYY=              3.5421
  XXY=              4.2194  XXZ=              0.0070  XZZ=             -0.2699  YZZ=              2.0453
  YYZ=             -0.0065  XYZ=             -0.0002
 Hexadecapole moment (field-independent basis, Debye-Ang**3):
 XXXX=          -1382.9048 YYYY=           -578.8388 ZZZZ=           -228.3312 XXXY=            -53.7781
 XXXZ=             -0.0171 YYYX=            -36.8649 YYYZ=              0.0046 ZZZX=             -0.0121
 ZZZY=              0.0224 XXYY=           -347.2710 XXZZ=           -337.0254 YYZZ=           -161.7606
 XXYZ=             -0.0005 YYXZ=              0.0155 ZZXY=             -7.0436
 N-N= 8.339006085066D+02 E-N=-3.830148594408D+03  KE= 9.220583596816D+02
                          Isotropic Fermi Contact Couplings
        Atom                 a.u.       MegaHertz       Gauss      10(-4) cm-1
     1  C(13)             -0.00803      -9.03025      -3.22222      -3.01217
     2  C(13)              0.01733      19.48181       6.95160       6.49843
     3  C(13)             -0.00821      -9.22804      -3.29279      -3.07814
     4  C(13)             -0.00023      -0.25552      -0.09117      -0.08523
     5  C(13)              0.00676       7.59760       2.71101       2.53429
     6  C(13)              0.00319       3.59098       1.28135       1.19782
     7  C(13)             -0.00331      -3.72553      -1.32936      -1.24270
     8  N(14)              0.01865       6.02521       2.14995       2.00979
     9  N(14)              0.01865       6.02526       2.14996       2.00981
    10  S(33)             -0.01688      -5.79852      -2.06906      -1.93418
    11  O(17)              0.00128      -0.77752      -0.27744      -0.25935
    12  O(17)              0.00128      -0.77695      -0.27724      -0.25916
    13  H(1)               0.01231      55.04210      19.64039      18.36007
    14  H(1)               0.01235      55.19336      19.69436      18.41052
    15  H(1)              -0.00017      -0.76086      -0.27149      -0.25380
    16  H(1)              -0.00083      -3.69511      -1.31851      -1.23256
    17  H(1)              -0.00386     -17.25999      -6.15879      -5.75731
    18  H(1)               0.00418      18.67775       6.66469       6.23023
    19  H(1)              -0.00024      -1.06240      -0.37909      -0.35438
    20  H(1)               0.00418      18.66818       6.66127       6.22703
 --------------------------------------------------------
       Center         ----  Spin Dipole Couplings  ----
                      3XX-RR        3YY-RR        3ZZ-RR
 --------------------------------------------------------
     1   Atom       -0.007045     -0.012129      0.019174
     2   Atom       -0.201364     -0.203313      0.404676
     3   Atom       -0.007001     -0.006228      0.013228
     4   Atom       -0.106585     -0.105752      0.212337
     5   Atom       -0.097486     -0.103642      0.201129
     6   Atom       -0.060563     -0.068308      0.128871
     7   Atom       -0.004469     -0.000715      0.005184
     8   Atom        0.005614      0.141203     -0.146817
     9   Atom        0.005617      0.141181     -0.146799
    10   Atom       -0.031712     -0.000085      0.031798
    11   Atom        0.038128     -0.021292     -0.016837
    12   Atom        0.038109     -0.021283     -0.016826
    13   Atom        0.002805     -0.000740     -0.002065
    14   Atom        0.002807     -0.000766     -0.002041
    15   Atom        0.006506     -0.002833     -0.003673
    16   Atom       -0.004835      0.010403     -0.005568
    17   Atom       -0.007278      0.013238     -0.005960
    18   Atom       -0.001391      0.003513     -0.002122
    19   Atom       -0.000404      0.003471     -0.003068
    20   Atom       -0.001390      0.003515     -0.002124
 --------------------------------------------------------
                        XY            XZ            YZ
 --------------------------------------------------------
     1   Atom        0.001712      0.000005      0.000000
     2   Atom       -0.006652      0.000028      0.000070
     3   Atom        0.002920     -0.000002     -0.000003
     4   Atom        0.004022     -0.000006      0.000040
     5   Atom        0.000309     -0.000015      0.000025
     6   Atom       -0.001390     -0.000007      0.000019
     7   Atom       -0.000637     -0.000001      0.000000
     8   Atom        0.242793      0.050674      0.075831
     9   Atom        0.242790     -0.050708     -0.075869
    10   Atom        0.017946     -0.000003      0.000003
    11   Atom       -0.017497     -0.002382     -0.000180
    12   Atom       -0.017497      0.002394      0.000179
    13   Atom        0.004636      0.003884      0.004208
    14   Atom        0.004629     -0.003897     -0.004214
    15   Atom       -0.003180      0.000003      0.000001
    16   Atom       -0.000559     -0.000000     -0.000002
    17   Atom        0.012668     -0.000002     -0.000002
    18   Atom       -0.000203     -0.000422     -0.002744
    19   Atom       -0.003327      0.000000     -0.000000
    20   Atom       -0.000203      0.000423      0.002742
 --------------------------------------------------------


 ---------------------------------------------------------------------------------
              Anisotropic Spin Dipole Couplings in Principal Axis System
 ---------------------------------------------------------------------------------

       Atom             a.u.   MegaHertz   Gauss  10(-4) cm-1        Axes

              Baa    -0.0127    -1.698    -0.606    -0.566 -0.2920  0.9564  0.0000
     1 C(13)  Bbb    -0.0065    -0.875    -0.312    -0.292  0.9564  0.2920 -0.0002
              Bcc     0.0192     2.573     0.918     0.858  0.0002  0.0000  1.0000
 
              Baa    -0.2091   -28.054   -10.010    -9.358  0.6539  0.7566 -0.0001
     2 C(13)  Bbb    -0.1956   -26.250    -9.367    -8.756  0.7566 -0.6539  0.0000
              Bcc     0.4047    54.304    19.377    18.114  0.0000  0.0001  1.0000
 
              Baa    -0.0096    -1.283    -0.458    -0.428  0.7521 -0.6591 -0.0000
     3 C(13)  Bbb    -0.0037    -0.492    -0.176    -0.164  0.6591  0.7521  0.0002
              Bcc     0.0132     1.775     0.633     0.592 -0.0001 -0.0002  1.0000
 
              Baa    -0.1102   -14.789    -5.277    -4.933  0.7427 -0.6697  0.0001
     4 C(13)  Bbb    -0.1021   -13.704    -4.890    -4.571  0.6697  0.7427 -0.0001
              Bcc     0.2123    28.494    10.167     9.504 -0.0000  0.0001  1.0000
 
              Baa    -0.1037   -13.910    -4.963    -4.640 -0.0499  0.9988 -0.0001
     5 C(13)  Bbb    -0.0975   -13.080    -4.667    -4.363  0.9988  0.0499  0.0000
              Bcc     0.2011    26.990     9.631     9.003 -0.0000  0.0001  1.0000
 
              Baa    -0.0685    -9.199    -3.282    -3.068  0.1714  0.9852 -0.0001
     6 C(13)  Bbb    -0.0603    -8.095    -2.888    -2.700  0.9852 -0.1714  0.0001
              Bcc     0.1289    17.293     6.171     5.768 -0.0000  0.0001  1.0000
 
              Baa    -0.0046    -0.614    -0.219    -0.205  0.9867  0.1628  0.0001
     7 C(13)  Bbb    -0.0006    -0.082    -0.029    -0.027 -0.1628  0.9867 -0.0001
              Bcc     0.0052     0.696     0.248     0.232 -0.0001  0.0001  1.0000
 
              Baa    -0.1804    -6.958    -2.483    -2.321  0.7249 -0.6187  0.3030
     8 N(14)  Bbb    -0.1620    -6.249    -2.230    -2.084 -0.3508  0.0470  0.9353
              Bcc     0.3424    13.207     4.713     4.405  0.5929  0.7843  0.1830
 
              Baa    -0.1804    -6.958    -2.483    -2.321  0.7249 -0.6187 -0.3028
     9 N(14)  Bbb    -0.1620    -6.249    -2.230    -2.084  0.3508 -0.0468  0.9353
              Bcc     0.3424    13.207     4.713     4.405  0.5929  0.7842 -0.1831
 
              Baa    -0.0398    -1.632    -0.583    -0.545  0.9114 -0.4116  0.0001
    10 S(33)  Bbb     0.0080     0.329     0.117     0.110  0.4116  0.9114 -0.0001
              Bcc     0.0318     1.304     0.465     0.435 -0.0000  0.0001  1.0000
 
              Baa    -0.0261     1.891     0.675     0.631  0.2647  0.9604  0.0865
    11 O(17)  Bbb    -0.0169     1.219     0.435     0.407  0.0134 -0.0933  0.9955
              Bcc     0.0430    -3.110    -1.110    -1.037  0.9642 -0.2624 -0.0376
 
              Baa    -0.0261     1.890     0.675     0.631  0.2648  0.9604 -0.0867
    12 O(17)  Bbb    -0.0168     1.219     0.435     0.407 -0.0136  0.0936  0.9955
              Bcc     0.0430    -3.109    -1.109    -1.037  0.9642 -0.2625  0.0378
 
              Baa    -0.0057    -3.022    -1.078    -1.008  0.0144 -0.6574  0.7534
    13 H(1)   Bbb    -0.0032    -1.716    -0.612    -0.572  0.7085 -0.5250 -0.4716
              Bcc     0.0089     4.738     1.691     1.580  0.7056  0.5405  0.4582
 
              Baa    -0.0057    -3.024    -1.079    -1.009 -0.0154  0.6602  0.7509
    14 H(1)   Bbb    -0.0032    -1.716    -0.612    -0.573  0.7084 -0.5228  0.4742
              Bcc     0.0089     4.740     1.691     1.581  0.7056  0.5393 -0.4597
 
              Baa    -0.0038    -2.034    -0.726    -0.679  0.2945  0.9556 -0.0136
    15 H(1)   Bbb    -0.0037    -1.960    -0.699    -0.654  0.0038  0.0131  0.9999
              Bcc     0.0075     3.994     1.425     1.332  0.9557 -0.2945  0.0003
 
              Baa    -0.0056    -2.971    -1.060    -0.991  0.0004  0.0001  1.0000
    16 H(1)   Bbb    -0.0049    -2.591    -0.924    -0.864  0.9993  0.0366 -0.0004
              Bcc     0.0104     5.561     1.984     1.855 -0.0366  0.9993 -0.0001
 
              Baa    -0.0133    -7.107    -2.536    -2.371  0.9026 -0.4305  0.0001
    17 H(1)   Bbb    -0.0060    -3.180    -1.135    -1.061 -0.0000  0.0001  1.0000
              Bcc     0.0193    10.287     3.671     3.431  0.4305  0.9026 -0.0001
 
              Baa    -0.0033    -1.787    -0.638    -0.596  0.2324  0.3671  0.9007
    18 H(1)   Bbb    -0.0013    -0.683    -0.244    -0.228  0.9726 -0.0830 -0.2171
              Bcc     0.0046     2.470     0.881     0.824 -0.0049  0.9265 -0.3763
 
              Baa    -0.0031    -1.637    -0.584    -0.546 -0.0002 -0.0001  1.0000
    19 H(1)   Bbb    -0.0023    -1.236    -0.441    -0.412  0.8670  0.4984  0.0002
              Bcc     0.0054     2.873     1.025     0.958 -0.4984  0.8670 -0.0000
 
              Baa    -0.0033    -1.787    -0.638    -0.596 -0.2322 -0.3668  0.9009
    20 H(1)   Bbb    -0.0013    -0.682    -0.243    -0.228  0.9727 -0.0830  0.2169
              Bcc     0.0046     2.470     0.881     0.824 -0.0048  0.9266  0.3760
 

 ---------------------------------------------------------------------------------

 No NMR shielding tensors so no spin-rotation constants.
 Leave Link  601 at Fri Aug  3 03:41:50 2018, MaxMem=  1073741824 cpu:              26.3 elap:               2.2
 (Enter /shared/apps/gaussian/gaussian-16/g16/l9999.exe)
 1\1\GINC-COMPUTE-0-232\FOpt\UM06\6-31+G(d,p)\C7H8N2O2S1(1+,2)\ROOT\03-
 Aug-2018\0\\#p M06/6-31+G(d,p) SCRF=(Solvent=Acetonitrile) opt\\ADNOQZ
 QZUQQVRY-UHFFFAOYSA-N_cat-rad_solv\\1,2\C,-3.4156774986,0.3259328182,0
 .0001738869\C,-1.9859917137,0.6290820772,-0.0000215699\C,-1.3036701122
 ,1.8173690093,-0.0001580779\C,0.1125208754,1.711488377,-0.0001290768\C
 ,0.6063035277,0.417818692,0.0000232448\C,1.9334141004,-0.060551599,0.0
 00093725\C,2.3080387156,-1.4977894156,0.0002396766\N,2.9499954335,0.93
 24318977,0.5954706636\N,2.9500293308,0.9323295211,-0.5953963028\S,-0.7
 975884514,-0.7247656885,0.0001106046\O,-0.850472483,-1.4401870839,1.26
 61213082\O,-0.8504270688,-1.4403648994,-1.2658024542\H,-3.67226523,-0.
 2834645978,-0.8780296496\H,-3.6723077147,-0.2812810244,0.8799040489\H,
 -4.011658749,1.2399736644,-0.0009002341\H,-1.8108903897,2.776841674,-0
 .000293964\H,0.7524378363,2.5896305599,-0.0002300502\H,1.9114646256,-1
 .9979328371,0.8908152423\H,3.3935547712,-1.6073757976,0.0000786306\H,1
 .9111901945,-1.9981853474,-0.8900696521\\Version=EM64L-G16RevA.03\Stat
 e=2-A\HF=-928.9680829\S2=0.763825\S2-1=0.\S2A=0.750082\RMSD=5.345e-09\
 RMSF=9.173e-05\Dipole=-0.1123845,2.705816,0.0000288\Quadrupole=15.9655
 761,-1.0348952,-14.9306809,-7.6943217,-0.0007604,-0.0016133\PG=C01 [X(
 C7H8N2O2S1)]\\@


 NATURE GIVES TO EVERY TIME AND SEASON SOME BEAUTY OF ITS OWN.

                                                    --DICKENS
 Job cpu time:       0 days  5 hours  6 minutes 10.8 seconds.
 Elapsed time:       0 days  0 hours 20 minutes 45.1 seconds.
 File lengths (MBytes):  RWF=    368 Int=      0 D2E=      0 Chk=     32 Scr=     32
 Normal termination of Gaussian 16 at Fri Aug  3 03:41:50 2018.
