 Entering Gaussian System, Link 0=/opt/asn/apps/gaussian_g16a03_avx2/g16/g16
 Initial command:
 /opt/asn/apps/gaussian_g16a03_avx2/g16/l1.exe "/scratch-local/aubhfc.C6H4OH2orthoC1comG.71433/Gau-19277.inp" -scrdir="/scratch-local/aubhfc.C6H4OH2orthoC1comG.71433/"
 Entering Link 1 = /opt/asn/apps/gaussian_g16a03_avx2/g16/l1.exe PID=     19278.
  
 Copyright (c) 1988,1990,1992,1993,1995,1998,2003,2009,2016,
            Gaussian, Inc.  All Rights Reserved.
  
 This is part of the Gaussian(R) 16 program.  It is based on
 the Gaussian(R) 09 system (copyright 2009, Gaussian, Inc.),
 the Gaussian(R) 03 system (copyright 2003, Gaussian, Inc.),
 the Gaussian(R) 98 system (copyright 1998, Gaussian, Inc.),
 the Gaussian(R) 94 system (copyright 1995, Gaussian, Inc.),
 the Gaussian 92(TM) system (copyright 1992, Gaussian, Inc.),
 the Gaussian 90(TM) system (copyright 1990, Gaussian, Inc.),
 the Gaussian 88(TM) system (copyright 1988, Gaussian, Inc.),
 the Gaussian 86(TM) system (copyright 1986, Carnegie Mellon
 University), and the Gaussian 82(TM) system (copyright 1983,
 Carnegie Mellon University). Gaussian is a federally registered
 trademark of Gaussian, Inc.
  
 This software contains proprietary and confidential information,
 including trade secrets, belonging to Gaussian, Inc.
  
 This software is provided under written license and may be
 used, copied, transmitted, or stored only in accord with that
 written license.
  
 The following legend is applicable only to US Government
 contracts under FAR:
  
                    RESTRICTED RIGHTS LEGEND
  
 Use, reproduction and disclosure by the US Government is
 subject to restrictions as set forth in subparagraphs (a)
 and (c) of the Commercial Computer Software - Restricted
 Rights clause in FAR 52.227-19.
  
 Gaussian, Inc.
 340 Quinnipiac St., Bldg. 40, Wallingford CT 06492
  
  
 ---------------------------------------------------------------
 Warning -- This program may not be used in any manner that
 competes with the business of Gaussian, Inc. or will provide
 assistance to any competitor of Gaussian, Inc.  The licensee
 of this program is prohibited from giving any competitor of
 Gaussian, Inc. access to this program.  By using this program,
 the user acknowledges that Gaussian, Inc. is engaged in the
 business of creating and licensing software in the field of
 computational chemistry and represents and warrants to the
 licensee that it is not a competitor of Gaussian, Inc. and that
 it will not use this program in any manner prohibited above.
 ---------------------------------------------------------------
  

 Cite this work as:
 Gaussian 16, Revision A.03,
 M. J. Frisch, G. W. Trucks, H. B. Schlegel, G. E. Scuseria, 
 M. A. Robb, J. R. Cheeseman, G. Scalmani, V. Barone, 
 G. A. Petersson, H. Nakatsuji, X. Li, M. Caricato, A. V. Marenich, 
 J. Bloino, B. G. Janesko, R. Gomperts, B. Mennucci, H. P. Hratchian, 
 J. V. Ortiz, A. F. Izmaylov, J. L. Sonnenberg, D. Williams-Young, 
 F. Ding, F. Lipparini, F. Egidi, J. Goings, B. Peng, A. Petrone, 
 T. Henderson, D. Ranasinghe, V. G. Zakrzewski, J. Gao, N. Rega, 
 G. Zheng, W. Liang, M. Hada, M. Ehara, K. Toyota, R. Fukuda, 
 J. Hasegawa, M. Ishida, T. Nakajima, Y. Honda, O. Kitao, H. Nakai, 
 T. Vreven, K. Throssell, J. A. Montgomery, Jr., J. E. Peralta, 
 F. Ogliaro, M. J. Bearpark, J. J. Heyd, E. N. Brothers, K. N. Kudin, 
 V. N. Staroverov, T. A. Keith, R. Kobayashi, J. Normand, 
 K. Raghavachari, A. P. Rendell, J. C. Burant, S. S. Iyengar, 
 J. Tomasi, M. Cossi, J. M. Millam, M. Klene, C. Adamo, R. Cammi, 
 J. W. Ochterski, R. L. Martin, K. Morokuma, O. Farkas, 
 J. B. Foresman, and D. J. Fox, Gaussian, Inc., Wallingford CT, 2016.
 
 ******************************************
 Gaussian 16:  ES64L-G16RevA.03 25-Dec-2016
                15-Feb-2017 
 ******************************************
 %nprocshared=8
 Will use up to    8 processors via shared memory.
 Default route: MaxDisk=300GB
 -------------------------------
 #mp2/6-311++g(2df,2pd) opt freq
 -------------------------------
 1/18=20,19=15,38=1/1,3;
 2/9=110,12=2,17=6,18=5,40=1/2;
 3/5=4,6=6,7=1414,11=9,25=1,30=1,71=1/1,2,3;
 4//1;
 5/5=2,38=5/2;
 8/6=4,10=2/1;
 9/15=2,16=-3/6;
 10/5=1/2;
 6/7=2,8=2,9=2,10=2/1;
 7/12=2/1,2,3,16;
 1/18=20,19=15/3(2);
 2/9=110/2;
 99//99;
 2/9=110/2;
 3/5=4,6=6,7=1414,11=9,25=1,30=1,71=1/1,2,3;
 4/5=5,16=3,69=1/1;
 5/5=2,38=5/2;
 8/6=4,10=2/1;
 9/15=2,16=-3/6;
 10/5=1/2;
 7/12=2/1,2,3,16;
 1/18=20,19=15/3(-8);
 2/9=110/2;
 6/7=2,8=2,9=2,10=2/1;
 99//99;
 ----------------
 C6H4OH2_ortho_C1
 ----------------
 Symbolic Z-matrix:
 Charge =  0 Multiplicity = 1
 C                    0     0.55871   0.14492   0.0043 
 C                    0     1.95323   0.14733   0.00832 
 C                    0     2.64083   1.37305  -0.04164 
 C                    0     1.94187   2.57799  -0.06528 
 C                    0     0.54078   2.56993  -0.05798 
 C                    0    -0.14616   1.35402  -0.02013 
 H                    0     0.04654  -0.81165   0.04109 
 H                    0    -1.2317    1.34038  -0.01826 
 O                    0     2.63875  -1.02792   0.04436 
 H                    0     3.57365  -0.7921    0.07985 
 H                    0    -0.00207   3.50963  -0.07544 
 H                    0     2.49163   3.51598  -0.11017 
 O                    0     4.01471   1.2647   -0.06349 
 H                    0     4.38841   2.11161   0.19392 
 

 GradGradGradGradGradGradGradGradGradGradGradGradGradGradGradGradGradGrad
 Berny optimization.
 Initialization pass.
                           ----------------------------
                           !    Initial Parameters    !
                           ! (Angstroms and Degrees)  !
 --------------------------                            --------------------------
 ! Name  Definition              Value          Derivative Info.                !
 --------------------------------------------------------------------------------
 ! R1    R(1,2)                  1.3945         estimate D2E/DX2                !
 ! R2    R(1,6)                  1.3998         estimate D2E/DX2                !
 ! R3    R(1,7)                  1.0857         estimate D2E/DX2                !
 ! R4    R(2,3)                  1.4063         estimate D2E/DX2                !
 ! R5    R(2,9)                  1.361          estimate D2E/DX2                !
 ! R6    R(3,4)                  1.3932         estimate D2E/DX2                !
 ! R7    R(3,13)                 1.3783         estimate D2E/DX2                !
 ! R8    R(4,5)                  1.4011         estimate D2E/DX2                !
 ! R9    R(4,12)                 1.0881         estimate D2E/DX2                !
 ! R10   R(5,6)                  1.3971         estimate D2E/DX2                !
 ! R11   R(5,11)                 1.0854         estimate D2E/DX2                !
 ! R12   R(6,8)                  1.0856         estimate D2E/DX2                !
 ! R13   R(9,10)                 0.9648         estimate D2E/DX2                !
 ! R14   R(13,14)                0.9608         estimate D2E/DX2                !
 ! A1    A(2,1,6)              120.1399         estimate D2E/DX2                !
 ! A2    A(2,1,7)              118.2406         estimate D2E/DX2                !
 ! A3    A(6,1,7)              121.6077         estimate D2E/DX2                !
 ! A4    A(1,2,3)              119.3634         estimate D2E/DX2                !
 ! A5    A(1,2,9)              120.1491         estimate D2E/DX2                !
 ! A6    A(3,2,9)              120.483          estimate D2E/DX2                !
 ! A7    A(2,3,4)              120.6051         estimate D2E/DX2                !
 ! A8    A(2,3,13)             114.7978         estimate D2E/DX2                !
 ! A9    A(4,3,13)             124.597          estimate D2E/DX2                !
 ! A10   A(3,4,5)              119.7767         estimate D2E/DX2                !
 ! A11   A(3,4,12)             119.5218         estimate D2E/DX2                !
 ! A12   A(5,4,12)             120.6892         estimate D2E/DX2                !
 ! A13   A(4,5,6)              119.7908         estimate D2E/DX2                !
 ! A14   A(4,5,11)             119.6747         estimate D2E/DX2                !
 ! A15   A(6,5,11)             120.5333         estimate D2E/DX2                !
 ! A16   A(1,6,5)              120.3087         estimate D2E/DX2                !
 ! A17   A(1,6,8)              119.5138         estimate D2E/DX2                !
 ! A18   A(5,6,8)              120.1753         estimate D2E/DX2                !
 ! A19   A(2,9,10)             106.1391         estimate D2E/DX2                !
 ! A20   A(3,13,14)            108.3098         estimate D2E/DX2                !
 ! D1    D(6,1,2,3)             -1.3685         estimate D2E/DX2                !
 ! D2    D(6,1,2,9)            179.4016         estimate D2E/DX2                !
 ! D3    D(7,1,2,3)            179.8638         estimate D2E/DX2                !
 ! D4    D(7,1,2,9)              0.6339         estimate D2E/DX2                !
 ! D5    D(2,1,6,5)              0.824          estimate D2E/DX2                !
 ! D6    D(2,1,6,8)           -179.7108         estimate D2E/DX2                !
 ! D7    D(7,1,6,5)            179.5493         estimate D2E/DX2                !
 ! D8    D(7,1,6,8)             -0.9855         estimate D2E/DX2                !
 ! D9    D(1,2,3,4)              1.4101         estimate D2E/DX2                !
 ! D10   D(1,2,3,13)          -178.6043         estimate D2E/DX2                !
 ! D11   D(9,2,3,4)           -179.3625         estimate D2E/DX2                !
 ! D12   D(9,2,3,13)             0.623          estimate D2E/DX2                !
 ! D13   D(1,2,9,10)          -177.5537         estimate D2E/DX2                !
 ! D14   D(3,2,9,10)             3.2251         estimate D2E/DX2                !
 ! D15   D(2,3,4,5)             -0.8903         estimate D2E/DX2                !
 ! D16   D(2,3,4,12)          -179.6238         estimate D2E/DX2                !
 ! D17   D(13,3,4,5)           179.1256         estimate D2E/DX2                !
 ! D18   D(13,3,4,12)            0.3921         estimate D2E/DX2                !
 ! D19   D(2,3,13,14)         -161.4695         estimate D2E/DX2                !
 ! D20   D(4,3,13,14)           18.5154         estimate D2E/DX2                !
 ! D21   D(3,4,5,6)              0.3275         estimate D2E/DX2                !
 ! D22   D(3,4,5,11)           179.9405         estimate D2E/DX2                !
 ! D23   D(12,4,5,6)           179.0459         estimate D2E/DX2                !
 ! D24   D(12,4,5,11)           -1.341          estimate D2E/DX2                !
 ! D25   D(4,5,6,1)             -0.2942         estimate D2E/DX2                !
 ! D26   D(4,5,6,8)           -179.7558         estimate D2E/DX2                !
 ! D27   D(11,5,6,1)          -179.9039         estimate D2E/DX2                !
 ! D28   D(11,5,6,8)             0.6345         estimate D2E/DX2                !
 --------------------------------------------------------------------------------
 Trust Radius=3.00D-01 FncErr=1.00D-07 GrdErr=1.00D-07 EigMax=2.50D+02 EigMin=1.00D-04
 Number of steps in this run=     72 maximum allowed number of steps=    100.
 GradGradGradGradGradGradGradGradGradGradGradGradGradGradGradGradGradGrad

                          Input orientation:                          
 ---------------------------------------------------------------------
 Center     Atomic      Atomic             Coordinates (Angstroms)
 Number     Number       Type             X           Y           Z
 ---------------------------------------------------------------------
      1          6           0        0.558711    0.144919    0.004304
      2          6           0        1.953228    0.147330    0.008318
      3          6           0        2.640833    1.373050   -0.041641
      4          6           0        1.941870    2.577991   -0.065277
      5          6           0        0.540777    2.569932   -0.057979
      6          6           0       -0.146157    1.354022   -0.020126
      7          1           0        0.046543   -0.811646    0.041090
      8          1           0       -1.231702    1.340380   -0.018264
      9          8           0        2.638748   -1.027920    0.044360
     10          1           0        3.573653   -0.792101    0.079845
     11          1           0       -0.002072    3.509628   -0.075445
     12          1           0        2.491628    3.515977   -0.110167
     13          8           0        4.014709    1.264701   -0.063493
     14          1           0        4.388413    2.111606    0.193925
 ---------------------------------------------------------------------
                    Distance matrix (angstroms):
                    1          2          3          4          5
     1  C    0.000000
     2  C    1.394525   0.000000
     3  C    2.417777   1.406302   0.000000
     4  C    2.799608   2.431801   1.393194   0.000000
     5  C    2.425879   2.805070   2.417236   1.401135   0.000000
     6  C    1.399773   2.421639   2.787138   2.420742   1.397050
     7  H    1.085673   2.134516   3.392651   3.884998   3.418940
     8  H    2.152954   3.401155   3.872743   3.406677   2.157559
     9  O    2.388244   1.361047   2.402510   3.674269   4.166113
    10  H    3.158099   1.874413   2.360676   3.747172   4.529967
    11  H    3.412053   3.890407   3.398685   2.155681   1.085366
    12  H    3.887583   3.413458   2.149208   1.088149   2.168766
    13  O    3.633515   2.345927   1.378315   2.453853   3.711046
    14  H    4.309343   3.134159   1.911804   2.504052   3.883017
                    6          7          8          9         10
     6  C    0.000000
     7  H    2.175086   0.000000
     8  H    1.085632   2.503726   0.000000
     9  O    3.665174   2.601214   4.537967   0.000000
    10  H    4.295675   3.527378   5.258188   0.964840   0.000000
    11  H    2.161124   4.323118   2.494173   5.251441   5.595963
    12  H    3.411754   4.972890   4.313335   4.548903   4.445944
    13  O    4.162050   4.479787   5.247151   2.676006   2.108438
    14  H    4.602399   5.236468   5.676752   3.597265   3.018006
                   11         12         13         14
    11  H    0.000000
    12  H    2.493950   0.000000
    13  O    4.601562   2.718492   0.000000
    14  H    4.615560   2.379605   0.960816   0.000000
 Stoichiometry    C6H6O2
 Framework group  C1[X(C6H6O2)]
 Deg. of freedom    36
 Full point group                 C1      NOp   1
 Largest Abelian subgroup         C1      NOp   1
 Largest concise Abelian subgroup C1      NOp   1
                         Standard orientation:                         
 ---------------------------------------------------------------------
 Center     Atomic      Atomic             Coordinates (Angstroms)
 Number     Number       Type             X           Y           Z
 ---------------------------------------------------------------------
      1          6           0       -0.717725   -1.393883   -0.004639
      2          6           0        0.508455   -0.729698    0.001744
      3          6           0        0.531159    0.676354   -0.011963
      4          6           0       -0.656233    1.405048   -0.002240
      5          6           0       -1.885381    0.732479    0.002513
      6          6           0       -1.912299   -0.664311    0.004400
      7          1           0       -0.713956   -2.479516    0.003897
      8          1           0       -2.861158   -1.191817    0.004080
      9          8           0        1.670073   -1.438979    0.005249
     10          1           0        2.381349   -0.788526    0.049015
     11          1           0       -2.809400    1.301809    0.011066
     12          1           0       -0.618199    2.492398   -0.019345
     13          8           0        1.791435    1.233976   -0.034641
     14          1           0        1.721436    2.149750    0.247538
 ---------------------------------------------------------------------
 Rotational constants (GHZ):           3.3918236           2.2344624           1.3476522
 Standard basis: 6-311++G(2df,2pd) (5D, 7F)
 There are   408 symmetry adapted cartesian basis functions of A   symmetry.
 There are   362 symmetry adapted basis functions of A   symmetry.
   362 basis functions,   524 primitive gaussians,   408 cartesian basis functions
    29 alpha electrons       29 beta electrons
       nuclear repulsion energy       350.7256610914 Hartrees.
 NAtoms=   14 NActive=   14 NUniq=   14 SFac= 1.00D+00 NAtFMM=   60 NAOKFM=F Big=F
 Integral buffers will be    131072 words long.
 Raffenetti 1 integral format.
 Two-electron integral symmetry is turned on.
 One-electron integrals computed using PRISM.
 NBasis=   362 RedAO= T EigKep=  6.49D-06  NBF=   362
 NBsUse=   361 1.00D-06 EigRej=  9.78D-07 NBFU=   361
 ExpMin= 3.60D-02 ExpMax= 8.59D+03 ExpMxC= 1.30D+03 IAcc=3 IRadAn=         5 AccDes= 0.00D+00
 Harris functional with IExCor=  205 and IRadAn=       5 diagonalized for initial guess.
 HarFok:  IExCor=  205 AccDes= 0.00D+00 IRadAn=         5 IDoV= 1 UseB2=F ITyADJ=14
 ICtDFT=  3500011 ScaDFX=  1.000000  1.000000  1.000000  1.000000
 FoFCou: FMM=F IPFlag=           0 FMFlag=      100000 FMFlg1=           0
         NFxFlg=           0 DoJE=T BraDBF=F KetDBF=T FulRan=T
         wScrn=  0.000000 ICntrl=       500 IOpCl=  0 I1Cent=   200000004 NGrid=           0
         NMat0=    1 NMatS0=      1 NMatT0=    0 NMatD0=    1 NMtDS0=    0 NMtDT0=    0
 Petite list used in FoFCou.
 Requested convergence on RMS density matrix=1.00D-08 within 128 cycles.
 Requested convergence on MAX density matrix=1.00D-06.
 Requested convergence on             energy=1.00D-06.
 No special actions if energy rises.
 Initial convergence to 1.0D-05 achieved.  Increase integral accuracy.
 SCF Done:  E(RHF) =  -380.548891228     A.U. after   14 cycles
            NFock= 14  Conv=0.68D-08     -V/T= 2.0015
 ExpMin= 3.60D-02 ExpMax= 8.59D+03 ExpMxC= 1.30D+03 IAcc=3 IRadAn=         5 AccDes= 0.00D+00
 HarFok:  IExCor=  205 AccDes= 0.00D+00 IRadAn=         5 IDoV=-2 UseB2=F ITyADJ=14
 ICtDFT= 12500011 ScaDFX=  1.000000  1.000000  1.000000  1.000000
 Range of M.O.s used for correlation:     9   361
 NBasis=   362 NAE=    29 NBE=    29 NFC=     8 NFV=     0
 NROrb=    353 NOA=    21 NOB=    21 NVA=   332 NVB=   332

 **** Warning!!: The largest alpha MO coefficient is  0.91428612D+02

 Disk-based method using ON**2 memory for 21 occupieds at a time.
 Estimated scratch disk usage=  2470364915 words.
 Actual    scratch disk usage=  2387748083 words.
 JobTyp=1 Pass  1:  I=   9 to  29 NPSUse=  8 ParTrn=T ParDer=T DoDerP=T.
 Spin components of T(2) and E(2):
     alpha-alpha T2 =       0.6112745976D-01 E2=     -0.1844790164D+00
     alpha-beta  T2 =       0.3157240554D+00 E2=     -0.1052155308D+01
     beta-beta   T2 =       0.6112745976D-01 E2=     -0.1844790164D+00
 ANorm=    0.1199157611D+01
 E2 =    -0.1421113341D+01 EUMP2 =    -0.38197000456911D+03
          IDoAtm=11111111111111
          Differentiating once with respect to electric field.
                with respect to dipole field.
          Differentiating once with respect to nuclear coordinates.
          There are     1 degrees of freedom in the 1st order CPHF.  IDoFFX=0 NUNeed=     1.
 LinEq1:  Iter=  0 NonCon=     1 RMS=2.78D-03 Max=5.58D-02 NDo=     1
 AX will form     1 AO Fock derivatives at one time.
 LinEq1:  Iter=  1 NonCon=     1 RMS=7.13D-04 Max=1.15D-02 NDo=     1
 LinEq1:  Iter=  2 NonCon=     1 RMS=2.31D-04 Max=5.32D-03 NDo=     1
 LinEq1:  Iter=  3 NonCon=     1 RMS=8.16D-05 Max=1.27D-03 NDo=     1
 LinEq1:  Iter=  4 NonCon=     1 RMS=2.97D-05 Max=6.72D-04 NDo=     1
 LinEq1:  Iter=  5 NonCon=     1 RMS=9.02D-06 Max=2.27D-04 NDo=     1
 LinEq1:  Iter=  6 NonCon=     1 RMS=3.29D-06 Max=1.38D-04 NDo=     1
 LinEq1:  Iter=  7 NonCon=     1 RMS=1.53D-06 Max=4.95D-05 NDo=     1
 LinEq1:  Iter=  8 NonCon=     1 RMS=4.32D-07 Max=7.78D-06 NDo=     1
 LinEq1:  Iter=  9 NonCon=     1 RMS=1.08D-07 Max=2.05D-06 NDo=     1
 LinEq1:  Iter= 10 NonCon=     1 RMS=4.01D-08 Max=8.38D-07 NDo=     1
 LinEq1:  Iter= 11 NonCon=     1 RMS=1.15D-08 Max=2.81D-07 NDo=     1
 LinEq1:  Iter= 12 NonCon=     1 RMS=3.14D-09 Max=9.16D-08 NDo=     1
 LinEq1:  Iter= 13 NonCon=     1 RMS=8.05D-10 Max=2.96D-08 NDo=     1
 LinEq1:  Iter= 14 NonCon=     1 RMS=3.15D-10 Max=7.09D-09 NDo=     1
 LinEq1:  Iter= 15 NonCon=     1 RMS=1.13D-10 Max=3.68D-09 NDo=     1
 LinEq1:  Iter= 16 NonCon=     0 RMS=3.81D-11 Max=7.02D-10 NDo=     1
 Linear equations converged to 1.000D-10 1.000D-09 after    16 iterations.
 End of Minotr F.D. properties file   721 does not exist.
 End of Minotr F.D. properties file   722 does not exist.
 End of Minotr F.D. properties file   788 does not exist.

 **********************************************************************

            Population analysis using the SCF density.

 **********************************************************************

 Orbital symmetries:
       Occupied  (A) (A) (A) (A) (A) (A) (A) (A) (A) (A) (A) (A)
                 (A) (A) (A) (A) (A) (A) (A) (A) (A) (A) (A) (A)
                 (A) (A) (A) (A) (A)
       Virtual   (A) (A) (A) (A) (A) (A) (A) (A) (A) (A) (A) (A)
                 (A) (A) (A) (A) (A) (A) (A) (A) (A) (A) (A) (A)
                 (A) (A) (A) (A) (A) (A) (A) (A) (A) (A) (A) (A)
                 (A) (A) (A) (A) (A) (A) (A) (A) (A) (A) (A) (A)
                 (A) (A) (A) (A) (A) (A) (A) (A) (A) (A) (A) (A)
                 (A) (A) (A) (A) (A) (A) (A) (A) (A) (A) (A) (A)
                 (A) (A) (A) (A) (A) (A) (A) (A) (A) (A) (A) (A)
                 (A) (A) (A) (A) (A) (A) (A) (A) (A) (A) (A) (A)
                 (A) (A) (A) (A) (A) (A) (A) (A) (A) (A) (A) (A)
                 (A) (A) (A) (A) (A) (A) (A) (A) (A) (A) (A) (A)
                 (A) (A) (A) (A) (A) (A) (A) (A) (A) (A) (A) (A)
                 (A) (A) (A) (A) (A) (A) (A) (A) (A) (A) (A) (A)
                 (A) (A) (A) (A) (A) (A) (A) (A) (A) (A) (A) (A)
                 (A) (A) (A) (A) (A) (A) (A) (A) (A) (A) (A) (A)
                 (A) (A) (A) (A) (A) (A) (A) (A) (A) (A) (A) (A)
                 (A) (A) (A) (A) (A) (A) (A) (A) (A) (A) (A) (A)
                 (A) (A) (A) (A) (A) (A) (A) (A) (A) (A) (A) (A)
                 (A) (A) (A) (A) (A) (A) (A) (A) (A) (A) (A) (A)
                 (A) (A) (A) (A) (A) (A) (A) (A) (A) (A) (A) (A)
                 (A) (A) (A) (A) (A) (A) (A) (A) (A) (A) (A) (A)
                 (A) (A) (A) (A) (A) (A) (A) (A) (A) (A) (A) (A)
                 (A) (A) (A) (A) (A) (A) (A) (A) (A) (A) (A) (A)
                 (A) (A) (A) (A) (A) (A) (A) (A) (A) (A) (A) (A)
                 (A) (A) (A) (A) (A) (A) (A) (A) (A) (A) (A) (A)
                 (A) (A) (A) (A) (A) (A) (A) (A) (A) (A) (A) (A)
                 (A) (A) (A) (A) (A) (A) (A) (A) (A) (A) (A) (A)
                 (A) (A) (A) (A) (A) (A) (A) (A) (A) (A) (A) (A)
                 (A) (A) (A) (A) (A) (A) (A) (A)
 The electronic state is 1-A.
 Alpha  occ. eigenvalues --  -20.60610 -20.58581 -11.30388 -11.29971 -11.24577
 Alpha  occ. eigenvalues --  -11.23787 -11.23670 -11.23479  -1.42885  -1.39441
 Alpha  occ. eigenvalues --   -1.14536  -1.01809  -1.00361  -0.86306  -0.82922
 Alpha  occ. eigenvalues --   -0.74057  -0.73682  -0.67301  -0.64898  -0.62058
 Alpha  occ. eigenvalues --   -0.60559  -0.59393  -0.57475  -0.56171  -0.52326
 Alpha  occ. eigenvalues --   -0.50447  -0.47717  -0.33724  -0.30906
 Alpha virt. eigenvalues --    0.03521   0.04595   0.05327   0.06764   0.06970
 Alpha virt. eigenvalues --    0.09402   0.10561   0.12478   0.12661   0.13061
 Alpha virt. eigenvalues --    0.14657   0.15191   0.15505   0.16505   0.17664
 Alpha virt. eigenvalues --    0.17688   0.18086   0.19529   0.19900   0.20243
 Alpha virt. eigenvalues --    0.20325   0.20797   0.21900   0.22478   0.22949
 Alpha virt. eigenvalues --    0.23544   0.24505   0.25505   0.28027   0.28480
 Alpha virt. eigenvalues --    0.29049   0.29401   0.32096   0.32843   0.34386
 Alpha virt. eigenvalues --    0.36166   0.36698   0.38717   0.39860   0.40237
 Alpha virt. eigenvalues --    0.40342   0.41971   0.42394   0.43539   0.44230
 Alpha virt. eigenvalues --    0.45277   0.46823   0.50859   0.51786   0.53169
 Alpha virt. eigenvalues --    0.54403   0.59560   0.63400   0.63900   0.64797
 Alpha virt. eigenvalues --    0.68459   0.68649   0.70016   0.70595   0.71091
 Alpha virt. eigenvalues --    0.72488   0.73092   0.73549   0.76041   0.77860
 Alpha virt. eigenvalues --    0.77959   0.78853   0.80338   0.81032   0.82004
 Alpha virt. eigenvalues --    0.82949   0.84231   0.85951   0.86917   0.87985
 Alpha virt. eigenvalues --    0.88822   0.89961   0.90586   0.92289   0.93498
 Alpha virt. eigenvalues --    0.94507   0.96399   0.98038   0.99238   1.00688
 Alpha virt. eigenvalues --    1.04214   1.05207   1.06041   1.06508   1.08815
 Alpha virt. eigenvalues --    1.11079   1.13262   1.14550   1.17223   1.19808
 Alpha virt. eigenvalues --    1.21342   1.23361   1.25355   1.26209   1.27951
 Alpha virt. eigenvalues --    1.29295   1.31863   1.32888   1.33621   1.35284
 Alpha virt. eigenvalues --    1.36857   1.37740   1.44062   1.46864   1.47636
 Alpha virt. eigenvalues --    1.48839   1.50979   1.51410   1.52969   1.55109
 Alpha virt. eigenvalues --    1.56125   1.57843   1.59554   1.60132   1.63089
 Alpha virt. eigenvalues --    1.63708   1.68639   1.69647   1.72058   1.74835
 Alpha virt. eigenvalues --    1.75888   1.79598   1.85968   1.90124   1.91532
 Alpha virt. eigenvalues --    1.92282   1.93101   1.97575   1.98759   2.04110
 Alpha virt. eigenvalues --    2.12322   2.13597   2.16337   2.17824   2.24134
 Alpha virt. eigenvalues --    2.24890   2.26906   2.38436   2.43785   2.52221
 Alpha virt. eigenvalues --    2.59857   2.64773   2.66047   2.71410   2.74417
 Alpha virt. eigenvalues --    2.81073   2.82814   2.88535   2.91503   2.91849
 Alpha virt. eigenvalues --    2.97538   2.99195   3.01089   3.04400   3.04953
 Alpha virt. eigenvalues --    3.05157   3.05982   3.06675   3.08233   3.10032
 Alpha virt. eigenvalues --    3.10680   3.13164   3.15020   3.15811   3.16175
 Alpha virt. eigenvalues --    3.18202   3.19166   3.21272   3.21869   3.23557
 Alpha virt. eigenvalues --    3.24303   3.28865   3.29455   3.31833   3.33414
 Alpha virt. eigenvalues --    3.35498   3.37048   3.38135   3.40143   3.40931
 Alpha virt. eigenvalues --    3.42444   3.42941   3.44974   3.46214   3.48149
 Alpha virt. eigenvalues --    3.52366   3.54396   3.56040   3.56648   3.60551
 Alpha virt. eigenvalues --    3.60898   3.62844   3.64505   3.65839   3.65914
 Alpha virt. eigenvalues --    3.66295   3.67669   3.68681   3.69180   3.70985
 Alpha virt. eigenvalues --    3.73107   3.73640   3.76980   3.78089   3.79007
 Alpha virt. eigenvalues --    3.83228   3.84107   3.89728   3.91555   3.93442
 Alpha virt. eigenvalues --    3.94645   3.95678   3.97938   4.00528   4.01812
 Alpha virt. eigenvalues --    4.03276   4.05590   4.06972   4.09313   4.10505
 Alpha virt. eigenvalues --    4.12048   4.13579   4.13964   4.16865   4.19248
 Alpha virt. eigenvalues --    4.20422   4.21251   4.22290   4.23054   4.24178
 Alpha virt. eigenvalues --    4.25228   4.27568   4.30755   4.32139   4.35406
 Alpha virt. eigenvalues --    4.37479   4.39618   4.41480   4.42149   4.43345
 Alpha virt. eigenvalues --    4.46263   4.49039   4.50250   4.52477   4.53854
 Alpha virt. eigenvalues --    4.54817   4.57951   4.62983   4.65138   4.65279
 Alpha virt. eigenvalues --    4.67856   4.75888   4.77874   4.79907   4.82284
 Alpha virt. eigenvalues --    4.83022   4.84163   4.85463   4.85550   4.95022
 Alpha virt. eigenvalues --    5.03085   5.06731   5.10858   5.12414   5.13637
 Alpha virt. eigenvalues --    5.15706   5.20018   5.21584   5.22331   5.24006
 Alpha virt. eigenvalues --    5.29279   5.29820   5.32471   5.34329   5.35534
 Alpha virt. eigenvalues --    5.57888   5.59650   5.61593   5.67693   5.67877
 Alpha virt. eigenvalues --    5.69157   5.74737   5.83326   5.84106   5.91298
 Alpha virt. eigenvalues --    5.94326   5.98701   6.00967   6.07753   6.14897
 Alpha virt. eigenvalues --    6.21864   6.28841   6.37234   6.42149   6.48881
 Alpha virt. eigenvalues --    6.53547   6.60606   6.65958   6.74225   6.91608
 Alpha virt. eigenvalues --    6.95827   6.96369   7.06287   7.16382   7.19836
 Alpha virt. eigenvalues --    7.45127   7.49195   7.53084   7.55393   7.69486
 Alpha virt. eigenvalues --    7.78287   7.86641   7.95491   8.08173   8.13953
 Alpha virt. eigenvalues --    8.19797   8.25132   8.52793   8.61224  25.32408
 Alpha virt. eigenvalues --   25.81809  25.88590  26.02713  26.10735  26.47529
 Alpha virt. eigenvalues --   52.02388  52.08147
          Condensed to atoms (all electrons):
               1          2          3          4          5          6
     1  C    5.717961   0.678883  -0.688984  -0.095627  -0.189461   0.560052
     2  C    0.678883   6.720395  -0.152067  -0.928354  -0.089059  -0.182654
     3  C   -0.688984  -0.152067   6.527565   0.305492  -0.222636  -0.224945
     4  C   -0.095627  -0.928354   0.305492   5.787802   0.513802  -0.096557
     5  C   -0.189461  -0.089059  -0.222636   0.513802   5.056243   0.666321
     6  C    0.560052  -0.182654  -0.224945  -0.096557   0.666321   5.022134
     7  H    0.462626  -0.037391  -0.023663  -0.003603   0.024258  -0.053652
     8  H   -0.042210   0.006739   0.004911   0.019099  -0.042380   0.414652
     9  O   -0.292215   0.418168  -0.063555  -0.054333   0.002135  -0.010289
    10  H    0.076268   0.075449  -0.147924  -0.032665  -0.004436   0.005977
    11  H    0.009585  -0.004697   0.020859  -0.029843   0.402784  -0.032970
    12  H    0.002743  -0.015593  -0.118482   0.464267   0.003977   0.022231
    13  O   -0.112792  -0.493966   0.461693   0.066916   0.031978   0.013052
    14  H    0.010188   0.069367   0.037291  -0.104084  -0.024831  -0.005867
               7          8          9         10         11         12
     1  C    0.462626  -0.042210  -0.292215   0.076268   0.009585   0.002743
     2  C   -0.037391   0.006739   0.418168   0.075449  -0.004697  -0.015593
     3  C   -0.023663   0.004911  -0.063555  -0.147924   0.020859  -0.118482
     4  C   -0.003603   0.019099  -0.054333  -0.032665  -0.029843   0.464267
     5  C    0.024258  -0.042380   0.002135  -0.004436   0.402784   0.003977
     6  C   -0.053652   0.414652  -0.010289   0.005977  -0.032970   0.022231
     7  H    0.589255  -0.011181  -0.021789   0.002495   0.001476   0.000347
     8  H   -0.011181   0.600535   0.000278   0.000164  -0.008515   0.000807
     9  O   -0.021789   0.000278   8.120725   0.261569   0.000374  -0.000353
    10  H    0.002495   0.000164   0.261569   0.498401   0.000100   0.000014
    11  H    0.001476  -0.008515   0.000374   0.000100   0.599547  -0.012735
    12  H    0.000347   0.000807  -0.000353   0.000014  -0.012735   0.649050
    13  O   -0.001936   0.000845  -0.003376   0.020532   0.000177  -0.016579
    14  H    0.000237   0.000023   0.000929   0.001218   0.000553   0.002322
              13         14
     1  C   -0.112792   0.010188
     2  C   -0.493966   0.069367
     3  C    0.461693   0.037291
     4  C    0.066916  -0.104084
     5  C    0.031978  -0.024831
     6  C    0.013052  -0.005867
     7  H   -0.001936   0.000237
     8  H    0.000845   0.000023
     9  O   -0.003376   0.000929
    10  H    0.020532   0.001218
    11  H    0.000177   0.000553
    12  H   -0.016579   0.002322
    13  O    8.140737   0.281656
    14  H    0.281656   0.510393
 Mulliken charges:
               1
     1  C   -0.097016
     2  C   -0.065220
     3  C    0.284446
     4  C    0.187690
     5  C   -0.128696
     6  C   -0.097486
     7  H    0.072522
     8  H    0.056233
     9  O   -0.358269
    10  H    0.242837
    11  H    0.053306
    12  H    0.017986
    13  O   -0.388938
    14  H    0.220606
 Sum of Mulliken charges =  -0.00000
 Mulliken charges with hydrogens summed into heavy atoms:
               1
     1  C   -0.024494
     2  C   -0.065220
     3  C    0.284446
     4  C    0.205675
     5  C   -0.075390
     6  C   -0.041253
     9  O   -0.115431
    13  O   -0.168332
 Electronic spatial extent (au):  <R**2>=            852.6356
 Charge=              0.0000 electrons
 Dipole moment (field-independent basis, Debye):
    X=             -0.3852    Y=              2.4814    Z=              0.5262  Tot=              2.5657
 Quadrupole moment (field-independent basis, Debye-Ang):
   XX=            -43.1714   YY=            -40.8478   ZZ=            -51.1091
   XY=              4.1762   XZ=              1.1559   YZ=              1.1384
 Traceless Quadrupole moment (field-independent basis, Debye-Ang):
   XX=              1.8714   YY=              4.1949   ZZ=             -6.0663
   XY=              4.1762   XZ=              1.1559   YZ=              1.1384
 Octapole moment (field-independent basis, Debye-Ang**2):
  XXX=             14.1606  YYY=             21.5943  ZZZ=              0.1288  XYY=              2.9163
  XXY=              3.7883  XXZ=              2.3307  XZZ=             10.0946  YZZ=              0.2077
  YYZ=              2.7004  XYZ=              2.1787
 Hexadecapole moment (field-independent basis, Debye-Ang**3):
 XXXX=           -555.0498 YYYY=           -371.6423 ZZZZ=            -57.9223 XXXY=              0.4560
 XXXZ=              4.7167 YYYX=             42.3686 YYYZ=              6.2185 ZZZX=              0.6261
 ZZZY=              0.5008 XXYY=           -163.6483 XXZZ=           -124.1443 YYZZ=            -88.4385
 XXYZ=              3.8110 YYXZ=              5.3235 ZZXY=              1.3749
 N-N= 3.507256610914D+02 E-N=-1.593859018631D+03  KE= 3.799906072181D+02
 Calling FoFJK, ICntrl=  10002127 FMM=F ISym2X=0 I1Cent= 0 IOpClX= 0 NMat=1 NMatS=1 NMatT=0.
 ***** Axes restored to original set *****
 -------------------------------------------------------------------
 Center     Atomic                   Forces (Hartrees/Bohr)
 Number     Number              X              Y              Z
 -------------------------------------------------------------------
      1        6           0.001750504    0.001751426    0.001395657
      2        6          -0.003934315    0.005848562   -0.002229312
      3        6          -0.005052188   -0.003475246    0.001374336
      4        6          -0.000867236   -0.002321401   -0.001208887
      5        6           0.001855747   -0.001787094    0.001284671
      6        6           0.002300035   -0.000790268   -0.001187476
      7        1           0.001151144    0.003101878   -0.000287805
      8        1           0.003584574    0.000065182    0.000136785
      9        8          -0.000869862    0.003288548    0.000242575
     10        1           0.001571605   -0.001544280   -0.000117224
     11        1           0.001811547   -0.003081214   -0.000126487
     12        1          -0.001779099   -0.002952370    0.000323812
     13        8          -0.003217875    0.001453267    0.001138462
     14        1           0.001695419    0.000443010   -0.000739107
 -------------------------------------------------------------------
 Cartesian Forces:  Max     0.005848562 RMS     0.002225383

 GradGradGradGradGradGradGradGradGradGradGradGradGradGradGradGradGradGrad
 Berny optimization.
 FormGI is forming the generalized inverse of G from B-inverse, IUseBI=4.
 Internal  Forces:  Max     0.007470859 RMS     0.002293326
 Search for a local minimum.
 Step number   1 out of a maximum of   72
 All quantities printed in internal units (Hartrees-Bohrs-Radians)
 Mixed Optimization -- RFO/linear search
 Second derivative matrix not updated -- first step.
 ITU=  0
     Eigenvalues ---    0.01979   0.02058   0.02079   0.02096   0.02105
     Eigenvalues ---    0.02110   0.02112   0.02126   0.02134   0.02146
     Eigenvalues ---    0.02207   0.15996   0.15996   0.15999   0.16000
     Eigenvalues ---    0.16000   0.16000   0.22000   0.22492   0.24480
     Eigenvalues ---    0.24998   0.25000   0.35027   0.35318   0.35322
     Eigenvalues ---    0.35354   0.41558   0.41889   0.45124   0.45772
     Eigenvalues ---    0.46150   0.46551   0.49412   0.52736   0.54445
     Eigenvalues ---    0.55298
 RFO step:  Lambda=-9.25944906D-04 EMin= 1.97863059D-02
 Linear search not attempted -- first point.
 Iteration  1 RMS(Cart)=  0.01074083 RMS(Int)=  0.00016074
 Iteration  2 RMS(Cart)=  0.00015354 RMS(Int)=  0.00001569
 Iteration  3 RMS(Cart)=  0.00000004 RMS(Int)=  0.00001569
 Variable       Old X    -DE/DX   Delta X   Delta X   Delta X     New X
                                 (Linear)    (Quad)   (Total)
    R1        2.63527  -0.00613   0.00000  -0.01317  -0.01317   2.62210
    R2        2.64519  -0.00642   0.00000  -0.01396  -0.01396   2.63123
    R3        2.05162  -0.00329   0.00000  -0.00928  -0.00928   2.04235
    R4        2.65753  -0.00747   0.00000  -0.01682  -0.01682   2.64071
    R5        2.57201  -0.00115   0.00000  -0.00218  -0.00218   2.56983
    R6        2.63276  -0.00643   0.00000  -0.01379  -0.01379   2.61896
    R7        2.60464  -0.00167   0.00000  -0.00338  -0.00338   2.60126
    R8        2.64776  -0.00632   0.00000  -0.01386  -0.01386   2.63390
    R9        2.05630  -0.00346   0.00000  -0.00984  -0.00984   2.04646
   R10        2.64004  -0.00553   0.00000  -0.01187  -0.01187   2.62817
   R11        2.05104  -0.00357   0.00000  -0.01008  -0.01008   2.04097
   R12        2.05155  -0.00358   0.00000  -0.01012  -0.01012   2.04143
   R13        1.82328   0.00114   0.00000   0.00209   0.00209   1.82538
   R14        1.81568   0.00085   0.00000   0.00154   0.00154   1.81722
    A1        2.09684  -0.00045   0.00000  -0.00177  -0.00181   2.09503
    A2        2.06369   0.00069   0.00000   0.00388   0.00386   2.06755
    A3        2.12245  -0.00024   0.00000  -0.00186  -0.00188   2.12057
    A4        2.08328   0.00067   0.00000   0.00258   0.00254   2.08582
    A5        2.09700  -0.00014   0.00000  -0.00043  -0.00045   2.09655
    A6        2.10283  -0.00053   0.00000  -0.00200  -0.00202   2.10081
    A7        2.10496   0.00003   0.00000  -0.00012  -0.00017   2.10479
    A8        2.00360   0.00108   0.00000   0.00443   0.00441   2.00802
    A9        2.17463  -0.00111   0.00000  -0.00431  -0.00433   2.17030
   A10        2.09050  -0.00013   0.00000  -0.00057  -0.00061   2.08989
   A11        2.08605   0.00011   0.00000   0.00067   0.00065   2.08670
   A12        2.10642   0.00003   0.00000   0.00016   0.00014   2.10656
   A13        2.09074   0.00002   0.00000   0.00045   0.00043   2.09117
   A14        2.08872  -0.00004   0.00000  -0.00039  -0.00040   2.08831
   A15        2.10370   0.00002   0.00000   0.00000  -0.00001   2.10369
   A16        2.09978  -0.00013   0.00000  -0.00013  -0.00016   2.09963
   A17        2.08591   0.00008   0.00000   0.00021   0.00020   2.08611
   A18        2.09745   0.00005   0.00000   0.00000  -0.00001   2.09745
   A19        1.85248   0.00343   0.00000   0.02129   0.02129   1.87376
   A20        1.89036   0.00268   0.00000   0.01663   0.01663   1.90699
    D1       -0.02388   0.00037   0.00000   0.01687   0.01689  -0.00700
    D2        3.13115   0.00011   0.00000   0.00490   0.00491   3.13606
    D3        3.13922   0.00009   0.00000   0.00399   0.00398  -3.13999
    D4        0.01106  -0.00017   0.00000  -0.00798  -0.00799   0.00307
    D5        0.01438  -0.00030   0.00000  -0.01318  -0.01317   0.00121
    D6       -3.13655  -0.00009   0.00000  -0.00399  -0.00398  -3.14052
    D7        3.13373   0.00001   0.00000   0.00022   0.00021   3.13393
    D8       -0.01720   0.00021   0.00000   0.00941   0.00940  -0.00780
    D9        0.02461  -0.00042   0.00000  -0.01948  -0.01950   0.00511
   D10       -3.11723  -0.00013   0.00000  -0.00595  -0.00593  -3.12317
   D11       -3.13047  -0.00016   0.00000  -0.00746  -0.00748  -3.13795
   D12        0.01087   0.00014   0.00000   0.00607   0.00609   0.01696
   D13       -3.09890  -0.00003   0.00000  -0.00121  -0.00122  -3.10012
   D14        0.05629  -0.00030   0.00000  -0.01335  -0.01334   0.04295
   D15       -0.01554   0.00040   0.00000   0.01816   0.01815   0.00261
   D16       -3.13503   0.00011   0.00000   0.00490   0.00489  -3.13014
   D17        3.12633   0.00008   0.00000   0.00324   0.00326   3.12959
   D18        0.00684  -0.00022   0.00000  -0.01002  -0.01000  -0.00315
   D19       -2.81817  -0.00088   0.00000  -0.04236  -0.04236  -2.86053
   D20        0.32316  -0.00058   0.00000  -0.02821  -0.02821   0.29494
   D21        0.00572  -0.00031   0.00000  -0.01413  -0.01412  -0.00841
   D22        3.14056  -0.00007   0.00000  -0.00324  -0.00323   3.13732
   D23        3.12494  -0.00001   0.00000  -0.00071  -0.00071   3.12423
   D24       -0.02341   0.00022   0.00000   0.01018   0.01018  -0.01322
   D25       -0.00513   0.00026   0.00000   0.01166   0.01167   0.00654
   D26       -3.13733   0.00005   0.00000   0.00241   0.00242  -3.13491
   D27       -3.13992   0.00002   0.00000   0.00068   0.00068  -3.13923
   D28        0.01107  -0.00019   0.00000  -0.00857  -0.00857   0.00251
         Item               Value     Threshold  Converged?
 Maximum Force            0.007471     0.000450     NO 
 RMS     Force            0.002293     0.000300     NO 
 Maximum Displacement     0.035542     0.001800     NO 
 RMS     Displacement     0.010752     0.001200     NO 
 Predicted change in Energy=-4.663608D-04
 GradGradGradGradGradGradGradGradGradGradGradGradGradGradGradGradGradGrad

                          Input orientation:                          
 ---------------------------------------------------------------------
 Center     Atomic      Atomic             Coordinates (Angstroms)
 Number     Number       Type             X           Y           Z
 ---------------------------------------------------------------------
      1          6           0        0.560592    0.150565    0.007397
      2          6           0        1.948141    0.154726    0.007674
      3          6           0        2.632804    1.372275   -0.031577
      4          6           0        1.938470    2.571240   -0.064534
      5          6           0        0.544719    2.563612   -0.055353
      6          6           0       -0.139970    1.353482   -0.023348
      7          1           0        0.048373   -0.800562    0.039592
      8          1           0       -1.220169    1.340639   -0.022314
      9          8           0        2.634142   -1.018895    0.044186
     10          1           0        3.574878   -0.801966    0.075995
     11          1           0        0.005118    3.498937   -0.077065
     12          1           0        2.485953    3.504697   -0.105516
     13          8           0        4.005302    1.268808   -0.050804
     14          1           0        4.390829    2.120313    0.175117
 ---------------------------------------------------------------------
                    Distance matrix (angstroms):
                    1          2          3          4          5
     1  C    0.000000
     2  C    1.387555   0.000000
     3  C    2.405858   1.397401   0.000000
     4  C    2.786286   2.417613   1.385895   0.000000
     5  C    2.413915   2.788602   2.404152   1.393802   0.000000
     6  C    1.392387   2.407942   2.772849   2.409262   1.390769
     7  H    1.080763   2.126667   3.377213   3.866828   3.401917
     8  H    2.142024   3.383116   3.853113   3.390156   2.147460
     9  O    2.380882   1.359896   2.392371   3.658532   4.148488
    10  H    3.161952   1.888438   2.372003   3.751813   4.530588
    11  H    3.395184   3.868626   3.380753   2.144441   1.080034
    12  H    3.869104   3.394755   2.138752   1.082940   2.157903
    13  O    3.622137   2.340194   1.376527   2.443013   3.694884
    14  H    4.310307   3.139792   1.921701   2.504962   3.878426
                    6          7          8          9         10
     6  C    0.000000
     7  H    2.163178   0.000000
     8  H    1.080276   2.489532   0.000000
     9  O    3.650812   2.594974   4.519682   0.000000
    10  H    4.296035   3.526693   5.252893   0.965948   0.000000
    11  H    2.151026   4.301298   2.482453   5.228506   5.591456
    12  H    3.395578   4.949556   4.292483   4.528494   4.445903
    13  O    4.146227   4.466290   5.226042   2.668837   2.118832
    14  H    4.599517   5.235150   5.668347   3.599684   3.035674
                   11         12         13         14
    11  H    0.000000
    12  H    2.481004   0.000000
    13  O    4.579916   2.703815   0.000000
    14  H    4.604200   2.371461   0.961630   0.000000
 Stoichiometry    C6H6O2
 Framework group  C1[X(C6H6O2)]
 Deg. of freedom    36
 Full point group                 C1      NOp   1
 Largest Abelian subgroup         C1      NOp   1
 Largest concise Abelian subgroup C1      NOp   1
                         Standard orientation:                         
 ---------------------------------------------------------------------
 Center     Atomic      Atomic             Coordinates (Angstroms)
 Number     Number       Type             X           Y           Z
 ---------------------------------------------------------------------
      1          6           0       -0.719543   -1.386625   -0.000486
      2          6           0        0.501214   -0.727033   -0.000775
      3          6           0        0.528678    0.670086   -0.006552
      4          6           0       -0.650174    1.398792   -0.005877
      5          6           0       -1.874629    0.732984    0.003773
      6          6           0       -1.905720   -0.657437    0.002512
      7          1           0       -0.721038   -2.467370    0.005547
      8          1           0       -2.851517   -1.179416    0.003720
      9          8           0        1.660794   -1.437439    0.002810
     10          1           0        2.387703   -0.802409    0.040167
     11          1           0       -2.792397    1.302329    0.008295
     12          1           0       -0.609374    2.480854   -0.021202
     13          8           0        1.786765    1.228230   -0.029317
     14          1           0        1.727191    2.155076    0.219962
 ---------------------------------------------------------------------
 Rotational constants (GHZ):           3.4175065           2.2528965           1.3582666
 Standard basis: 6-311++G(2df,2pd) (5D, 7F)
 There are   408 symmetry adapted cartesian basis functions of A   symmetry.
 There are   362 symmetry adapted basis functions of A   symmetry.
   362 basis functions,   524 primitive gaussians,   408 cartesian basis functions
    29 alpha electrons       29 beta electrons
       nuclear repulsion energy       352.0536815696 Hartrees.
 NAtoms=   14 NActive=   14 NUniq=   14 SFac= 1.00D+00 NAtFMM=   60 NAOKFM=F Big=F
 Integral buffers will be    131072 words long.
 Raffenetti 1 integral format.
 Two-electron integral symmetry is turned on.
 One-electron integrals computed using PRISM.
 NBasis=   362 RedAO= T EigKep=  5.97D-06  NBF=   362
 NBsUse=   361 1.00D-06 EigRej=  8.57D-07 NBFU=   361
 Initial guess from the checkpoint file:  "/scratch-local/aubhfc.C6H4OH2orthoC1comG.71433/Gau-19278.chk"
 B after Tr=     0.000000   -0.000000   -0.000000
         Rot=    0.999999    0.000036   -0.000023    0.001083 Ang=   0.12 deg.
 ExpMin= 3.60D-02 ExpMax= 8.59D+03 ExpMxC= 1.30D+03 IAcc=3 IRadAn=         5 AccDes= 0.00D+00
 Harris functional with IExCor=  205 and IRadAn=       5 diagonalized for initial guess.
 HarFok:  IExCor=  205 AccDes= 0.00D+00 IRadAn=         5 IDoV= 1 UseB2=F ITyADJ=14
 ICtDFT=  3500011 ScaDFX=  1.000000  1.000000  1.000000  1.000000
 FoFCou: FMM=F IPFlag=           0 FMFlag=      100000 FMFlg1=           0
         NFxFlg=           0 DoJE=T BraDBF=F KetDBF=T FulRan=T
         wScrn=  0.000000 ICntrl=       500 IOpCl=  0 I1Cent=   200000004 NGrid=           0
         NMat0=    1 NMatS0=      1 NMatT0=    0 NMatD0=    1 NMtDS0=    0 NMtDT0=    0
 Petite list used in FoFCou.
 Requested convergence on RMS density matrix=1.00D-08 within 128 cycles.
 Requested convergence on MAX density matrix=1.00D-06.
 Requested convergence on             energy=1.00D-06.
 No special actions if energy rises.
 Initial convergence to 1.0D-05 achieved.  Increase integral accuracy.
 SCF Done:  E(RHF) =  -380.550900895     A.U. after   11 cycles
            NFock= 11  Conv=0.95D-08     -V/T= 2.0011
 ExpMin= 3.60D-02 ExpMax= 8.59D+03 ExpMxC= 1.30D+03 IAcc=3 IRadAn=         5 AccDes= 0.00D+00
 HarFok:  IExCor=  205 AccDes= 0.00D+00 IRadAn=         5 IDoV=-2 UseB2=F ITyADJ=14
 ICtDFT= 12500011 ScaDFX=  1.000000  1.000000  1.000000  1.000000
 Range of M.O.s used for correlation:     9   361
 NBasis=   362 NAE=    29 NBE=    29 NFC=     8 NFV=     0
 NROrb=    353 NOA=    21 NOB=    21 NVA=   332 NVB=   332

 **** Warning!!: The largest alpha MO coefficient is  0.90331540D+02

 Disk-based method using ON**2 memory for 21 occupieds at a time.
 Estimated scratch disk usage=  2470364915 words.
 Actual    scratch disk usage=  2387748083 words.
 JobTyp=1 Pass  1:  I=   9 to  29 NPSUse=  8 ParTrn=T ParDer=T DoDerP=T.
 Spin components of T(2) and E(2):
     alpha-alpha T2 =       0.6078517674D-01 E2=     -0.1843616452D+00
     alpha-beta  T2 =       0.3136441360D+00 E2=     -0.1050837718D+01
     beta-beta   T2 =       0.6078517674D-01 E2=     -0.1843616452D+00
 ANorm=    0.1198004378D+01
 E2 =    -0.1419561008D+01 EUMP2 =    -0.38197046190249D+03
          IDoAtm=11111111111111
          Differentiating once with respect to electric field.
                with respect to dipole field.
          Differentiating once with respect to nuclear coordinates.
          There are     1 degrees of freedom in the 1st order CPHF.  IDoFFX=0 NUNeed=     1.
 LinEq1:  Iter=  0 NonCon=     1 RMS=2.76D-03 Max=6.47D-02 NDo=     1
 AX will form     1 AO Fock derivatives at one time.
 LinEq1:  Iter=  1 NonCon=     1 RMS=7.02D-04 Max=1.13D-02 NDo=     1
 LinEq1:  Iter=  2 NonCon=     1 RMS=2.28D-04 Max=5.26D-03 NDo=     1
 LinEq1:  Iter=  3 NonCon=     1 RMS=7.95D-05 Max=1.24D-03 NDo=     1
 LinEq1:  Iter=  4 NonCon=     1 RMS=2.88D-05 Max=6.40D-04 NDo=     1
 LinEq1:  Iter=  5 NonCon=     1 RMS=8.51D-06 Max=2.45D-04 NDo=     1
 LinEq1:  Iter=  6 NonCon=     1 RMS=3.03D-06 Max=1.30D-04 NDo=     1
 LinEq1:  Iter=  7 NonCon=     1 RMS=1.43D-06 Max=5.61D-05 NDo=     1
 LinEq1:  Iter=  8 NonCon=     1 RMS=4.16D-07 Max=8.20D-06 NDo=     1
 LinEq1:  Iter=  9 NonCon=     1 RMS=1.04D-07 Max=2.24D-06 NDo=     1
 LinEq1:  Iter= 10 NonCon=     1 RMS=3.79D-08 Max=7.93D-07 NDo=     1
 LinEq1:  Iter= 11 NonCon=     1 RMS=1.06D-08 Max=2.82D-07 NDo=     1
 LinEq1:  Iter= 12 NonCon=     1 RMS=2.85D-09 Max=1.11D-07 NDo=     1
 LinEq1:  Iter= 13 NonCon=     1 RMS=7.69D-10 Max=2.33D-08 NDo=     1
 LinEq1:  Iter= 14 NonCon=     1 RMS=3.91D-10 Max=1.70D-08 NDo=     1
 LinEq1:  Iter= 15 NonCon=     1 RMS=1.07D-10 Max=1.82D-09 NDo=     1
 LinEq1:  Iter= 16 NonCon=     0 RMS=3.73D-11 Max=6.45D-10 NDo=     1
 Linear equations converged to 1.000D-10 1.000D-09 after    16 iterations.
 End of Minotr F.D. properties file   721 does not exist.
 End of Minotr F.D. properties file   722 does not exist.
 End of Minotr F.D. properties file   788 does not exist.
 Calling FoFJK, ICntrl=  10002127 FMM=F ISym2X=0 I1Cent= 0 IOpClX= 0 NMat=1 NMatS=1 NMatT=0.
 ***** Axes restored to original set *****
 -------------------------------------------------------------------
 Center     Atomic                   Forces (Hartrees/Bohr)
 Number     Number              X              Y              Z
 -------------------------------------------------------------------
      1        6           0.000105052   -0.000725239    0.000204350
      2        6           0.001109630   -0.000003450   -0.000325133
      3        6           0.001501261   -0.000547692   -0.000171977
      4        6          -0.000036395    0.000518741    0.000078503
      5        6          -0.000046079    0.000607668    0.000097413
      6        6          -0.000510134   -0.000099174   -0.000139519
      7        1          -0.000117272   -0.000047539   -0.000095178
      8        1          -0.000174600    0.000041801    0.000131152
      9        8           0.000074710   -0.000195858    0.000139968
     10        1          -0.000795117    0.000167458   -0.000176229
     11        1          -0.000149303    0.000142919   -0.000144860
     12        1           0.000019370    0.000139723    0.000139280
     13        8          -0.000699257    0.000123726    0.001057527
     14        1          -0.000281867   -0.000123085   -0.000795298
 -------------------------------------------------------------------
 Cartesian Forces:  Max     0.001501261 RMS     0.000455866

 GradGradGradGradGradGradGradGradGradGradGradGradGradGradGradGradGradGrad
 Berny optimization.
 Using GEDIIS/GDIIS optimizer.
 FormGI is forming the generalized inverse of G from B-inverse, IUseBI=4.
 Internal  Forces:  Max     0.000981957 RMS     0.000312478
 Search for a local minimum.
 Step number   2 out of a maximum of   72
 All quantities printed in internal units (Hartrees-Bohrs-Radians)
 Mixed Optimization -- En-DIIS/RFO-DIIS
 Update second derivatives using D2CorX and points    1    2
 DE= -4.57D-04 DEPred=-4.66D-04 R= 9.81D-01
 TightC=F SS=  1.41D+00  RLast= 8.56D-02 DXNew= 5.0454D-01 2.5675D-01
 Trust test= 9.81D-01 RLast= 8.56D-02 DXMaxT set to 3.00D-01
 ITU=  1  0
 Use linear search instead of GDIIS.
     Eigenvalues ---    0.01774   0.02055   0.02084   0.02095   0.02105
     Eigenvalues ---    0.02107   0.02126   0.02129   0.02135   0.02146
     Eigenvalues ---    0.02204   0.15963   0.15999   0.16000   0.16000
     Eigenvalues ---    0.16000   0.16517   0.21999   0.22509   0.24468
     Eigenvalues ---    0.24878   0.25100   0.35050   0.35313   0.35335
     Eigenvalues ---    0.35539   0.41426   0.41860   0.45336   0.45778
     Eigenvalues ---    0.46107   0.48234   0.51185   0.52743   0.54939
     Eigenvalues ---    0.55888
 RFO step:  Lambda=-5.65423822D-05 EMin= 1.77424255D-02
 Quartic linear search produced a step of -0.01694.
 Iteration  1 RMS(Cart)=  0.00589202 RMS(Int)=  0.00010800
 Iteration  2 RMS(Cart)=  0.00010848 RMS(Int)=  0.00000071
 Iteration  3 RMS(Cart)=  0.00000003 RMS(Int)=  0.00000071
 Variable       Old X    -DE/DX   Delta X   Delta X   Delta X     New X
                                 (Linear)    (Quad)   (Total)
    R1        2.62210   0.00043   0.00022  -0.00012   0.00010   2.62220
    R2        2.63123   0.00068   0.00024   0.00040   0.00064   2.63187
    R3        2.04235   0.00009   0.00016  -0.00044  -0.00028   2.04206
    R4        2.64071   0.00024   0.00028  -0.00078  -0.00049   2.64021
    R5        2.56983  -0.00034   0.00004  -0.00080  -0.00076   2.56907
    R6        2.61896   0.00094   0.00023   0.00093   0.00116   2.62012
    R7        2.60126  -0.00098   0.00006  -0.00221  -0.00215   2.59911
    R8        2.63390   0.00047   0.00023  -0.00001   0.00022   2.63413
    R9        2.04646   0.00012   0.00017  -0.00039  -0.00023   2.04623
   R10        2.62817   0.00066   0.00020   0.00053   0.00073   2.62890
   R11        2.04097   0.00020   0.00017  -0.00020  -0.00003   2.04094
   R12        2.04143   0.00017   0.00017  -0.00028  -0.00011   2.04132
   R13        1.82538  -0.00074  -0.00004  -0.00118  -0.00122   1.82416
   R14        1.81722  -0.00041  -0.00003  -0.00061  -0.00064   1.81658
    A1        2.09503   0.00005   0.00003   0.00004   0.00007   2.09509
    A2        2.06755   0.00006  -0.00007   0.00073   0.00066   2.06821
    A3        2.12057  -0.00011   0.00003  -0.00073  -0.00070   2.11987
    A4        2.08582   0.00006  -0.00004   0.00034   0.00030   2.08612
    A5        2.09655  -0.00053   0.00001  -0.00208  -0.00207   2.09448
    A6        2.10081   0.00047   0.00003   0.00174   0.00178   2.10258
    A7        2.10479  -0.00005   0.00000  -0.00027  -0.00027   2.10453
    A8        2.00802   0.00010  -0.00007   0.00074   0.00067   2.00868
    A9        2.17030  -0.00004   0.00007  -0.00048  -0.00041   2.16989
   A10        2.08989   0.00007   0.00001   0.00033   0.00034   2.09022
   A11        2.08670   0.00002  -0.00001   0.00020   0.00019   2.08689
   A12        2.10656  -0.00009  -0.00000  -0.00050  -0.00050   2.10606
   A13        2.09117  -0.00012  -0.00001  -0.00041  -0.00042   2.09076
   A14        2.08831   0.00012   0.00001   0.00053   0.00054   2.08886
   A15        2.10369   0.00000   0.00000  -0.00013  -0.00013   2.10356
   A16        2.09963  -0.00001   0.00000  -0.00001  -0.00000   2.09962
   A17        2.08611   0.00005  -0.00000   0.00026   0.00026   2.08637
   A18        2.09745  -0.00004   0.00000  -0.00026  -0.00026   2.09719
   A19        1.87376  -0.00063  -0.00036  -0.00225  -0.00261   1.87115
   A20        1.90699  -0.00024  -0.00028  -0.00023  -0.00051   1.90648
    D1       -0.00700   0.00005  -0.00029   0.00388   0.00359  -0.00340
    D2        3.13606   0.00005  -0.00008   0.00253   0.00245   3.13851
    D3       -3.13999  -0.00001  -0.00007  -0.00017  -0.00023  -3.14022
    D4        0.00307  -0.00002   0.00014  -0.00151  -0.00138   0.00169
    D5        0.00121  -0.00001   0.00022  -0.00158  -0.00135  -0.00014
    D6       -3.14052   0.00002   0.00007   0.00052   0.00058  -3.13994
    D7        3.13393   0.00005  -0.00000   0.00260   0.00260   3.13653
    D8       -0.00780   0.00009  -0.00016   0.00469   0.00454  -0.00327
    D9        0.00511  -0.00006   0.00033  -0.00425  -0.00392   0.00119
   D10       -3.12317  -0.00007   0.00010  -0.00374  -0.00364  -3.12681
   D11       -3.13795  -0.00005   0.00013  -0.00290  -0.00277  -3.14072
   D12        0.01696  -0.00006  -0.00010  -0.00239  -0.00249   0.01446
   D13       -3.10012  -0.00012   0.00002  -0.00552  -0.00550  -3.10562
   D14        0.04295  -0.00013   0.00023  -0.00688  -0.00666   0.03629
   D15        0.00261   0.00002  -0.00031   0.00227   0.00196   0.00456
   D16       -3.13014  -0.00004  -0.00008  -0.00156  -0.00165  -3.13178
   D17        3.12959   0.00003  -0.00006   0.00172   0.00166   3.13125
   D18       -0.00315  -0.00003   0.00017  -0.00211  -0.00194  -0.00510
   D19       -2.86053  -0.00063   0.00072  -0.03429  -0.03357  -2.89411
   D20        0.29494  -0.00064   0.00048  -0.03376  -0.03329   0.26166
   D21       -0.00841   0.00003   0.00024   0.00008   0.00032  -0.00809
   D22        3.13732   0.00004   0.00005   0.00154   0.00160   3.13892
   D23        3.12423   0.00009   0.00001   0.00396   0.00397   3.12820
   D24       -0.01322   0.00010  -0.00017   0.00542   0.00524  -0.00798
   D25        0.00654  -0.00003  -0.00020  -0.00043  -0.00063   0.00591
   D26       -3.13491  -0.00006  -0.00004  -0.00253  -0.00258  -3.13749
   D27       -3.13923  -0.00004  -0.00001  -0.00190  -0.00191  -3.14114
   D28        0.00251  -0.00007   0.00015  -0.00400  -0.00386  -0.00135
         Item               Value     Threshold  Converged?
 Maximum Force            0.000982     0.000450     NO 
 RMS     Force            0.000312     0.000300     NO 
 Maximum Displacement     0.032570     0.001800     NO 
 RMS     Displacement     0.005878     0.001200     NO 
 Predicted change in Energy=-2.838803D-05
 GradGradGradGradGradGradGradGradGradGradGradGradGradGradGradGradGradGrad

                          Input orientation:                          
 ---------------------------------------------------------------------
 Center     Atomic      Atomic             Coordinates (Angstroms)
 Number     Number       Type             X           Y           Z
 ---------------------------------------------------------------------
      1          6           0        0.561221    0.150058    0.008293
      2          6           0        1.948822    0.154125    0.009531
      3          6           0        2.633825    1.371287   -0.026388
      4          6           0        1.939313    2.570793   -0.061706
      5          6           0        0.545422    2.563695   -0.055890
      6          6           0       -0.139486    1.353229   -0.024456
      7          1           0        0.048361   -0.800646    0.037674
      8          1           0       -1.219631    1.340687   -0.023616
      9          8           0        2.632083   -1.020655    0.045141
     10          1           0        3.572241   -0.803516    0.072781
     11          1           0        0.005726    3.498862   -0.080920
     12          1           0        2.486732    3.504323   -0.098499
     13          8           0        4.005293    1.268469   -0.040376
     14          1           0        4.389262    2.127158    0.157881
 ---------------------------------------------------------------------
                    Distance matrix (angstroms):
                    1          2          3          4          5
     1  C    0.000000
     2  C    1.387608   0.000000
     3  C    2.405887   1.397141   0.000000
     4  C    2.786395   2.417736   1.386509   0.000000
     5  C    2.414542   2.789236   2.405022   1.393921   0.000000
     6  C    1.392726   2.408327   2.773370   2.409410   1.391156
     7  H    1.080614   2.127001   3.377280   3.866805   3.402149
     8  H    2.142440   3.383507   3.853578   3.390212   2.147604
     9  O    2.379158   1.359493   2.393012   3.659214   4.148725
    10  H    3.159067   1.885886   2.370702   3.751066   4.529492
    11  H    3.395736   3.869247   3.381783   2.144864   1.080017
    12  H    3.869120   3.394826   2.139317   1.082820   2.157609
    13  O    3.621443   2.339514   1.375388   2.442289   3.694395
    14  H    4.311056   3.141753   1.920119   2.499456   3.874450
                    6          7          8          9         10
     6  C    0.000000
     7  H    2.162944   0.000000
     8  H    1.080218   2.489351   0.000000
     9  O    3.649899   2.593083   4.518447   0.000000
    10  H    4.293940   3.524056   5.250613   0.965303   0.000000
    11  H    2.151282   4.301355   2.482439   5.228736   5.590537
    12  H    3.395542   4.949440   4.292325   4.529590   4.445800
    13  O    4.145676   4.465943   5.225450   2.670788   2.119778
    14  H    4.598018   5.237357   5.666671   3.606815   3.043619
                   11         12         13         14
    11  H    0.000000
    12  H    2.481074   0.000000
    13  O    4.579611   2.703414   0.000000
    14  H    4.599346   2.362612   0.961293   0.000000
 Stoichiometry    C6H6O2
 Framework group  C1[X(C6H6O2)]
 Deg. of freedom    36
 Full point group                 C1      NOp   1
 Largest Abelian subgroup         C1      NOp   1
 Largest concise Abelian subgroup C1      NOp   1
                         Standard orientation:                         
 ---------------------------------------------------------------------
 Center     Atomic      Atomic             Coordinates (Angstroms)
 Number     Number       Type             X           Y           Z
 ---------------------------------------------------------------------
      1          6           0       -0.717921   -1.386991    0.000960
      2          6           0        0.502373   -0.726435   -0.000788
      3          6           0        0.529164    0.670443   -0.005084
      4          6           0       -0.650757    1.398586   -0.006181
      5          6           0       -1.875052    0.732221    0.002551
      6          6           0       -1.904996   -0.658613    0.002545
      7          1           0       -0.719288   -2.467594    0.005590
      8          1           0       -2.850440   -1.181104    0.005454
      9          8           0        1.660688   -1.438140    0.001299
     10          1           0        2.386429   -0.802434    0.032742
     11          1           0       -2.793360    1.300678    0.004196
     12          1           0       -0.610933    2.480600   -0.018765
     13          8           0        1.785606    1.229596   -0.024926
     14          1           0        1.720374    2.162934    0.195779
 ---------------------------------------------------------------------
 Rotational constants (GHZ):           3.4149523           2.2542113           1.3582353
 Standard basis: 6-311++G(2df,2pd) (5D, 7F)
 There are   408 symmetry adapted cartesian basis functions of A   symmetry.
 There are   362 symmetry adapted basis functions of A   symmetry.
   362 basis functions,   524 primitive gaussians,   408 cartesian basis functions
    29 alpha electrons       29 beta electrons
       nuclear repulsion energy       352.0684372510 Hartrees.
 NAtoms=   14 NActive=   14 NUniq=   14 SFac= 1.00D+00 NAtFMM=   60 NAOKFM=F Big=F
 Integral buffers will be    131072 words long.
 Raffenetti 1 integral format.
 Two-electron integral symmetry is turned on.
 One-electron integrals computed using PRISM.
 NBasis=   362 RedAO= T EigKep=  5.95D-06  NBF=   362
 NBsUse=   361 1.00D-06 EigRej=  8.50D-07 NBFU=   361
 Initial guess from the checkpoint file:  "/scratch-local/aubhfc.C6H4OH2orthoC1comG.71433/Gau-19278.chk"
 B after Tr=    -0.000000    0.000000    0.000000
         Rot=    1.000000    0.000015    0.000009   -0.000291 Ang=   0.03 deg.
 ExpMin= 3.60D-02 ExpMax= 8.59D+03 ExpMxC= 1.30D+03 IAcc=3 IRadAn=         5 AccDes= 0.00D+00
 Harris functional with IExCor=  205 and IRadAn=       5 diagonalized for initial guess.
 HarFok:  IExCor=  205 AccDes= 0.00D+00 IRadAn=         5 IDoV= 1 UseB2=F ITyADJ=14
 ICtDFT=  3500011 ScaDFX=  1.000000  1.000000  1.000000  1.000000
 FoFCou: FMM=F IPFlag=           0 FMFlag=      100000 FMFlg1=           0
         NFxFlg=           0 DoJE=T BraDBF=F KetDBF=T FulRan=T
         wScrn=  0.000000 ICntrl=       500 IOpCl=  0 I1Cent=   200000004 NGrid=           0
         NMat0=    1 NMatS0=      1 NMatT0=    0 NMatD0=    1 NMtDS0=    0 NMtDT0=    0
 Petite list used in FoFCou.
 Requested convergence on RMS density matrix=1.00D-08 within 128 cycles.
 Requested convergence on MAX density matrix=1.00D-06.
 Requested convergence on             energy=1.00D-06.
 No special actions if energy rises.
 Initial convergence to 1.0D-05 achieved.  Increase integral accuracy.
 SCF Done:  E(RHF) =  -380.550976215     A.U. after   11 cycles
            NFock= 11  Conv=0.51D-08     -V/T= 2.0011
 ExpMin= 3.60D-02 ExpMax= 8.59D+03 ExpMxC= 1.30D+03 IAcc=3 IRadAn=         5 AccDes= 0.00D+00
 HarFok:  IExCor=  205 AccDes= 0.00D+00 IRadAn=         5 IDoV=-2 UseB2=F ITyADJ=14
 ICtDFT= 12500011 ScaDFX=  1.000000  1.000000  1.000000  1.000000
 Range of M.O.s used for correlation:     9   361
 NBasis=   362 NAE=    29 NBE=    29 NFC=     8 NFV=     0
 NROrb=    353 NOA=    21 NOB=    21 NVA=   332 NVB=   332

 **** Warning!!: The largest alpha MO coefficient is  0.90656269D+02

 Disk-based method using ON**2 memory for 21 occupieds at a time.
 Estimated scratch disk usage=  2470264265 words.
 Actual    scratch disk usage=  2387593673 words.
 JobTyp=1 Pass  1:  I=   9 to  29 NPSUse=  8 ParTrn=T ParDer=T DoDerP=T.
 Spin components of T(2) and E(2):
     alpha-alpha T2 =       0.6078226518D-01 E2=     -0.1843600080D+00
     alpha-beta  T2 =       0.3136244406D+00 E2=     -0.1050813272D+01
     beta-beta   T2 =       0.6078226518D-01 E2=     -0.1843600080D+00
 ANorm=    0.1197993727D+01
 E2 =    -0.1419533288D+01 EUMP2 =    -0.38197050950328D+03
          IDoAtm=11111111111111
          Differentiating once with respect to electric field.
                with respect to dipole field.
          Differentiating once with respect to nuclear coordinates.
          There are     1 degrees of freedom in the 1st order CPHF.  IDoFFX=0 NUNeed=     1.
 LinEq1:  Iter=  0 NonCon=     1 RMS=2.76D-03 Max=6.56D-02 NDo=     1
 AX will form     1 AO Fock derivatives at one time.
 LinEq1:  Iter=  1 NonCon=     1 RMS=7.02D-04 Max=1.14D-02 NDo=     1
 LinEq1:  Iter=  2 NonCon=     1 RMS=2.27D-04 Max=5.29D-03 NDo=     1
 LinEq1:  Iter=  3 NonCon=     1 RMS=7.93D-05 Max=1.24D-03 NDo=     1
 LinEq1:  Iter=  4 NonCon=     1 RMS=2.86D-05 Max=6.17D-04 NDo=     1
 LinEq1:  Iter=  5 NonCon=     1 RMS=8.36D-06 Max=2.36D-04 NDo=     1
 LinEq1:  Iter=  6 NonCon=     1 RMS=2.96D-06 Max=1.28D-04 NDo=     1
 LinEq1:  Iter=  7 NonCon=     1 RMS=1.41D-06 Max=5.57D-05 NDo=     1
 LinEq1:  Iter=  8 NonCon=     1 RMS=4.13D-07 Max=8.38D-06 NDo=     1
 LinEq1:  Iter=  9 NonCon=     1 RMS=1.03D-07 Max=2.23D-06 NDo=     1
 LinEq1:  Iter= 10 NonCon=     1 RMS=3.77D-08 Max=7.95D-07 NDo=     1
 LinEq1:  Iter= 11 NonCon=     1 RMS=1.04D-08 Max=2.79D-07 NDo=     1
 LinEq1:  Iter= 12 NonCon=     1 RMS=2.77D-09 Max=1.08D-07 NDo=     1
 LinEq1:  Iter= 13 NonCon=     1 RMS=7.77D-10 Max=2.52D-08 NDo=     1
 LinEq1:  Iter= 14 NonCon=     1 RMS=4.09D-10 Max=1.81D-08 NDo=     1
 LinEq1:  Iter= 15 NonCon=     1 RMS=1.05D-10 Max=1.56D-09 NDo=     1
 LinEq1:  Iter= 16 NonCon=     0 RMS=3.58D-11 Max=5.91D-10 NDo=     1
 Linear equations converged to 1.000D-10 1.000D-09 after    16 iterations.
 End of Minotr F.D. properties file   721 does not exist.
 End of Minotr F.D. properties file   722 does not exist.
 End of Minotr F.D. properties file   788 does not exist.
 Calling FoFJK, ICntrl=  10002127 FMM=F ISym2X=0 I1Cent= 0 IOpClX= 0 NMat=1 NMatS=1 NMatT=0.
 ***** Axes restored to original set *****
 -------------------------------------------------------------------
 Center     Atomic                   Forces (Hartrees/Bohr)
 Number     Number              X              Y              Z
 -------------------------------------------------------------------
      1        6          -0.000100364   -0.000039419   -0.000033112
      2        6           0.000131041   -0.000090642   -0.000174266
      3        6           0.000845907    0.000040842   -0.000344050
      4        6          -0.000138839    0.000079698    0.000264552
      5        6          -0.000026362    0.000183074    0.000003709
      6        6          -0.000218237   -0.000037585    0.000008814
      7        1          -0.000080278   -0.000165722   -0.000015454
      8        1          -0.000213873    0.000013327    0.000035471
      9        8           0.000209236   -0.000151206    0.000102927
     10        1          -0.000024954   -0.000101179   -0.000075644
     11        1          -0.000115078    0.000166965   -0.000048514
     12        1           0.000116038    0.000212384    0.000041476
     13        8          -0.000339803   -0.000206282    0.000856396
     14        1          -0.000044433    0.000095745   -0.000622307
 -------------------------------------------------------------------
 Cartesian Forces:  Max     0.000856396 RMS     0.000251272

 GradGradGradGradGradGradGradGradGradGradGradGradGradGradGradGradGradGrad
 Berny optimization.
 Using GEDIIS/GDIIS optimizer.
 FormGI is forming the generalized inverse of G from B-inverse, IUseBI=4.
 Internal  Forces:  Max     0.000559309 RMS     0.000178068
 Search for a local minimum.
 Step number   3 out of a maximum of   72
 All quantities printed in internal units (Hartrees-Bohrs-Radians)
 Mixed Optimization -- En-DIIS/RFO-DIIS
 Swapping is turned off.
 Update second derivatives using D2CorX and points    1    2    3
 DE= -4.76D-05 DEPred=-2.84D-05 R= 1.68D+00
 TightC=F SS=  1.41D+00  RLast= 5.01D-02 DXNew= 5.0454D-01 1.5043D-01
 Trust test= 1.68D+00 RLast= 5.01D-02 DXMaxT set to 3.00D-01
 ITU=  1  1  0
     Eigenvalues ---    0.00408   0.02069   0.02087   0.02101   0.02105
     Eigenvalues ---    0.02117   0.02125   0.02134   0.02144   0.02183
     Eigenvalues ---    0.02260   0.15980   0.16000   0.16000   0.16000
     Eigenvalues ---    0.16033   0.17999   0.22045   0.22482   0.24476
     Eigenvalues ---    0.25005   0.27003   0.35114   0.35323   0.35353
     Eigenvalues ---    0.35864   0.41742   0.41926   0.45501   0.45828
     Eigenvalues ---    0.46375   0.48482   0.49205   0.53570   0.55153
     Eigenvalues ---    0.60017
 En-DIIS/RFO-DIIS/Sim-DIIS IScMMF=       -3 using points:     3    2
 RFO step:  Lambda=-1.48463005D-04.
 DidBck=F Rises=F RFO-DIIS coefs:    3.00000   -2.00000
 Iteration  1 RMS(Cart)=  0.02251440 RMS(Int)=  0.00161633
 Iteration  2 RMS(Cart)=  0.00162010 RMS(Int)=  0.00000606
 Iteration  3 RMS(Cart)=  0.00000561 RMS(Int)=  0.00000490
 Iteration  4 RMS(Cart)=  0.00000000 RMS(Int)=  0.00000490
 Variable       Old X    -DE/DX   Delta X   Delta X   Delta X     New X
                                 (Linear)    (Quad)   (Total)
    R1        2.62220   0.00043   0.00020   0.00086   0.00105   2.62325
    R2        2.63187   0.00035   0.00128  -0.00016   0.00112   2.63299
    R3        2.04206   0.00018  -0.00056   0.00047  -0.00009   2.04197
    R4        2.64021   0.00030  -0.00098   0.00001  -0.00097   2.63924
    R5        2.56907   0.00031  -0.00152   0.00212   0.00060   2.56967
    R6        2.62012   0.00048   0.00232   0.00024   0.00256   2.62268
    R7        2.59911  -0.00038  -0.00430  -0.00121  -0.00551   2.59359
    R8        2.63413   0.00032   0.00045   0.00001   0.00047   2.63460
    R9        2.04623   0.00024  -0.00045   0.00087   0.00041   2.04665
   R10        2.62890   0.00034   0.00146  -0.00002   0.00144   2.63035
   R11        2.04094   0.00020  -0.00006   0.00033   0.00027   2.04121
   R12        2.04132   0.00021  -0.00022   0.00048   0.00026   2.04158
   R13        1.82416  -0.00005  -0.00244   0.00098  -0.00146   1.82270
   R14        1.81658  -0.00006  -0.00127   0.00038  -0.00089   1.81569
    A1        2.09509   0.00009   0.00013   0.00091   0.00103   2.09613
    A2        2.06821  -0.00005   0.00132  -0.00072   0.00059   2.06880
    A3        2.11987  -0.00004  -0.00140  -0.00020  -0.00161   2.11826
    A4        2.08612  -0.00003   0.00059  -0.00032   0.00027   2.08639
    A5        2.09448  -0.00002  -0.00414   0.00126  -0.00289   2.09159
    A6        2.10258   0.00006   0.00355  -0.00094   0.00261   2.10520
    A7        2.10453  -0.00007  -0.00053  -0.00069  -0.00122   2.10331
    A8        2.00868  -0.00009   0.00134  -0.00092   0.00042   2.00910
    A9        2.16989   0.00016  -0.00081   0.00166   0.00084   2.17073
   A10        2.09022   0.00008   0.00068   0.00080   0.00147   2.09169
   A11        2.08689  -0.00003   0.00037  -0.00050  -0.00014   2.08675
   A12        2.10606  -0.00005  -0.00100  -0.00030  -0.00132   2.10474
   A13        2.09076  -0.00002  -0.00083   0.00009  -0.00074   2.09002
   A14        2.08886   0.00002   0.00108  -0.00003   0.00105   2.08991
   A15        2.10356  -0.00001  -0.00026  -0.00006  -0.00033   2.10323
   A16        2.09962  -0.00005  -0.00001  -0.00080  -0.00081   2.09881
   A17        2.08637   0.00004   0.00052   0.00051   0.00102   2.08740
   A18        2.09719   0.00001  -0.00052   0.00029  -0.00023   2.09696
   A19        1.87115   0.00017  -0.00522   0.00845   0.00323   1.87439
   A20        1.90648  -0.00005  -0.00102   0.00191   0.00089   1.90738
    D1       -0.00340  -0.00001   0.00719  -0.00169   0.00550   0.00209
    D2        3.13851  -0.00001   0.00490  -0.00228   0.00263   3.14114
    D3       -3.14022  -0.00001  -0.00047  -0.00055  -0.00102  -3.14125
    D4        0.00169  -0.00001  -0.00276  -0.00114  -0.00389  -0.00220
    D5       -0.00014   0.00001  -0.00270   0.00024  -0.00245  -0.00259
    D6       -3.13994   0.00001   0.00117   0.00097   0.00214  -3.13780
    D7        3.13653   0.00001   0.00520  -0.00093   0.00427   3.14080
    D8       -0.00327   0.00001   0.00907  -0.00021   0.00886   0.00559
    D9        0.00119   0.00002  -0.00784   0.00265  -0.00519  -0.00400
   D10       -3.12681  -0.00003  -0.00728  -0.00168  -0.00896  -3.13577
   D11       -3.14072   0.00002  -0.00555   0.00324  -0.00230   3.14016
   D12        0.01446  -0.00003  -0.00499  -0.00109  -0.00607   0.00839
   D13       -3.10562  -0.00007  -0.01101  -0.00538  -0.01638  -3.12201
   D14        0.03629  -0.00007  -0.01331  -0.00597  -0.01929   0.01701
   D15        0.00456  -0.00002   0.00392  -0.00212   0.00180   0.00636
   D16       -3.13178  -0.00003  -0.00329  -0.00312  -0.00642  -3.13820
   D17        3.13125   0.00002   0.00332   0.00260   0.00593   3.13718
   D18       -0.00510   0.00001  -0.00388   0.00160  -0.00229  -0.00738
   D19       -2.89411  -0.00052  -0.06715  -0.06152  -0.12866  -3.02277
   D20        0.26166  -0.00056  -0.06657  -0.06601  -0.13258   0.12908
   D21       -0.00809   0.00002   0.00065   0.00065   0.00129  -0.00679
   D22        3.13892   0.00002   0.00319   0.00102   0.00421  -3.14006
   D23        3.12820   0.00003   0.00794   0.00166   0.00960   3.13780
   D24       -0.00798   0.00003   0.01049   0.00203   0.01252   0.00454
   D25        0.00591  -0.00001  -0.00126   0.00028  -0.00098   0.00493
   D26       -3.13749  -0.00002  -0.00515  -0.00045  -0.00560   3.14010
   D27       -3.14114  -0.00001  -0.00382  -0.00009  -0.00391   3.13813
   D28       -0.00135  -0.00002  -0.00772  -0.00082  -0.00853  -0.00989
         Item               Value     Threshold  Converged?
 Maximum Force            0.000559     0.000450     NO 
 RMS     Force            0.000178     0.000300     YES
 Maximum Displacement     0.139295     0.001800     NO 
 RMS     Displacement     0.022386     0.001200     NO 
 Predicted change in Energy=-7.685009D-05
 GradGradGradGradGradGradGradGradGradGradGradGradGradGradGradGradGradGrad

                          Input orientation:                          
 ---------------------------------------------------------------------
 Center     Atomic      Atomic             Coordinates (Angstroms)
 Number     Number       Type             X           Y           Z
 ---------------------------------------------------------------------
      1          6           0        0.561920    0.149913    0.006916
      2          6           0        1.950050    0.153356    0.016215
      3          6           0        2.635831    1.369749   -0.009335
      4          6           0        1.940267    2.570090   -0.048613
      5          6           0        0.546127    2.564223   -0.055048
      6          6           0       -0.139581    1.353178   -0.030213
      7          1           0        0.047973   -0.800384    0.027353
      8          1           0       -1.219866    1.341170   -0.033633
      9          8           0        2.629344   -1.024051    0.053035
     10          1           0        3.570435   -0.813530    0.071677
     11          1           0        0.006453    3.499355   -0.087079
     12          1           0        2.487647    3.504348   -0.071222
     13          8           0        4.004445    1.267035   -0.004770
     14          1           0        4.388137    2.143418    0.084170
 ---------------------------------------------------------------------
                    Distance matrix (angstroms):
                    1          2          3          4          5
     1  C    0.000000
     2  C    1.388166   0.000000
     3  C    2.406112   1.396625   0.000000
     4  C    2.785710   2.417623   1.387865   0.000000
     5  C    2.415157   2.790763   2.407431   1.394168   0.000000
     6  C    1.393316   2.410039   2.775540   2.409768   1.391920
     7  H    1.080566   2.127826   3.377549   3.866089   3.402283
     8  H    2.143712   3.385521   3.855880   3.390710   2.148266
     9  O    2.377932   1.359810   2.394621   3.661011   4.150564
    10  H    3.159681   1.887748   2.376291   3.757766   4.535606
    11  H    3.396490   3.870910   3.384508   2.145845   1.080160
    12  H    3.868691   3.394967   2.140630   1.083039   2.157220
    13  O    3.619265   2.336934   1.372471   2.441456   3.693940
    14  H    4.315086   3.147893   1.917780   2.488322   3.867493
                    6          7          8          9         10
     6  C    0.000000
     7  H    2.162480   0.000000
     8  H    1.080357   2.489456   0.000000
     9  O    3.650355   2.591170   4.518650   0.000000
    10  H    4.297584   3.522766   5.253648   0.964531   0.000000
[...]
 ! D1    D(6,1,2,3)              0.0            -DE/DX =    0.0                 !
 ! D2    D(6,1,2,9)            180.0            -DE/DX =    0.0                 !
 ! D3    D(7,1,2,3)            180.0            -DE/DX =    0.0                 !
 ! D4    D(7,1,2,9)              0.0            -DE/DX =    0.0                 !
 ! D5    D(2,1,6,5)              0.0            -DE/DX =    0.0                 !
 ! D6    D(2,1,6,8)            180.0            -DE/DX =    0.0                 !
 ! D7    D(7,1,6,5)           -180.0            -DE/DX =    0.0                 !
 ! D8    D(7,1,6,8)              0.0            -DE/DX =    0.0                 !
 ! D9    D(1,2,3,4)              0.0            -DE/DX =    0.0                 !
 ! D10   D(1,2,3,13)          -180.0            -DE/DX =    0.0                 !
 ! D11   D(9,2,3,4)           -180.0            -DE/DX =    0.0                 !
 ! D12   D(9,2,3,13)             0.0            -DE/DX =    0.0                 !
 ! D13   D(1,2,9,10)           179.9999         -DE/DX =    0.0                 !
 ! D14   D(3,2,9,10)            -0.0001         -DE/DX =    0.0                 !
 ! D15   D(2,3,4,5)              0.0            -DE/DX =    0.0                 !
 ! D16   D(2,3,4,12)           180.0            -DE/DX =    0.0                 !
 ! D17   D(13,3,4,5)           180.0            -DE/DX =    0.0                 !
 ! D18   D(13,3,4,12)            0.0            -DE/DX =    0.0                 !
 ! D19   D(2,3,13,14)          179.9999         -DE/DX =    0.0                 !
 ! D20   D(4,3,13,14)           -0.0001         -DE/DX =    0.0                 !
 ! D21   D(3,4,5,6)              0.0            -DE/DX =    0.0                 !
 ! D22   D(3,4,5,11)           180.0            -DE/DX =    0.0                 !
 ! D23   D(12,4,5,6)           180.0            -DE/DX =    0.0                 !
 ! D24   D(12,4,5,11)            0.0            -DE/DX =    0.0                 !
 ! D25   D(4,5,6,1)              0.0            -DE/DX =    0.0                 !
 ! D26   D(4,5,6,8)           -180.0            -DE/DX =    0.0                 !
 ! D27   D(11,5,6,1)           180.0            -DE/DX =    0.0                 !
 ! D28   D(11,5,6,8)             0.0            -DE/DX =    0.0                 !
 --------------------------------------------------------------------------------
 GradGradGradGradGradGradGradGradGradGradGradGradGradGradGradGradGradGrad


 ----------------------------------------------------------------------

 Electric dipole moment (input orientation):
 (Debye = 10**-18 statcoulomb cm , SI units = C m)
                  (au)            (Debye)         (10**-30 SI)
   Tot        0.953068D+00      0.242246D+01      0.808044D+01
   x          0.432565D+00      0.109947D+01      0.366744D+01
   y          0.849158D+00      0.215835D+01      0.719946D+01
   z         -0.124829D-01     -0.317283D-01     -0.105834D+00

 Dipole polarizability, Alpha (input orientation).
 (esu units = cm**3 , SI units = C**2 m**2 J**-1)
 Alpha(0;0):
               (au)            (10**-24 esu)      (10**-40 SI)
   iso        0.768672D+02      0.113905D+02      0.126737D+02
   aniso      0.453523D+02      0.672051D+01      0.747758D+01
   xx         0.941961D+02      0.139584D+02      0.155308D+02
   yx        -0.288703D+01     -0.427814D+00     -0.476008D+00
   yy         0.894240D+02      0.132513D+02      0.147440D+02
   zx         0.762781D+00      0.113033D+00      0.125766D+00
   zy        -0.106441D+01     -0.157729D+00     -0.175497D+00
   zz         0.469815D+02      0.696194D+01      0.774620D+01

 ----------------------------------------------------------------------

 Dipole orientation:
     6          0.71909079         -0.38554402          0.73291399
     6          2.77444245         -1.49281310          1.92771964
     6          2.87544529         -1.54207000          4.56650102
     6          0.94096271         -0.49497095          5.99182962
     6         -1.12148795          0.61627604          4.78609491
     6         -1.22677270          0.66802471          2.15934538
     1          0.67515314         -0.36609807         -1.30911948
     1         -2.81939856          1.52616459          1.21266590
     8          4.67134655         -2.51929175          0.53000939
     1          5.90549986         -3.18706985          1.69472151
     1         -2.62556505          1.43038422          5.90079339
     1          1.04849795         -0.54902619          8.03553897
     8          4.98445201         -2.67907580          5.56388433
     1          4.89238475         -2.62790271          7.37741660

 Electric dipole moment (dipole orientation):
 (Debye = 10**-18 statcoulomb cm , SI units = C m)
                  (au)            (Debye)         (10**-30 SI)
   Tot        0.953068D+00      0.242246D+01      0.808044D+01
   x          0.000000D+00      0.000000D+00      0.000000D+00
   y          0.000000D+00      0.000000D+00      0.000000D+00
   z          0.953068D+00      0.242246D+01      0.808044D+01

 Dipole polarizability, Alpha (dipole orientation).
 (esu units = cm**3 , SI units = C**2 m**2 J**-1)
 Alpha(0;0):
               (au)            (10**-24 esu)      (10**-40 SI)
   iso        0.768672D+02      0.113905D+02      0.126737D+02
   aniso      0.453523D+02      0.672051D+01      0.747758D+01
   xx         0.845973D+02      0.125360D+02      0.139482D+02
   yx        -0.203318D+02     -0.301287D+01     -0.335227D+01
   yy         0.579237D+02      0.858341D+01      0.955033D+01
   zx         0.222729D+00      0.330050D-01      0.367230D-01
   zy        -0.417818D-01     -0.619142D-02     -0.688888D-02
   zz         0.880806D+02      0.130522D+02      0.145225D+02

 ----------------------------------------------------------------------
 1\1\ASC-DMC_UV_AVX2\Freq\RMP2-FC\6-311++G(2df,2pd)\C6H6O2\AUBHFC\15-Fe
 b-2017\0\\#N Geom=AllCheck Guess=TCheck SCRF=Check GenChk RMP2(FC)/6-3
 11++G(2df,2pd) Freq\\C6H4OH2_ortho_C1\\0,1\C,0.5607253556,0.1497233872
 ,0.0039897683\C,1.9484006847,0.152764268,0.0241223418\C,2.6351436489,1
 .3699052786,0.0047985039\C,1.9404174471,2.5697762501,-0.0341546917\C,0
 .5462821792,2.5635335821,-0.0543820265\C,-0.1399042561,1.3532517849,-0
 .0352879958\H,0.0476649829,-0.8015206678,0.019527286\H,-1.2202131119,1
 .3410747482,-0.0508154756\O,2.6295540378,-1.0238022927,0.0621873713\H,
 3.5708520828,-0.8113921336,0.0725476167\H,0.0076903977,3.4995029825,-0
 .0847038245\H,2.4880144363,3.5044377309,-0.048660705\O,4.0043174162,1.
 2651524145,0.0274331346\H,4.3902366988,2.145462667,0.0128486967\\Versi
 on=ES64L-G16RevA.03\State=1-A\HF=-380.5510713\MP2=-381.9706334\RMSD=1.
 509e-09\RMSF=2.762e-05\ZeroPoint=0.1091026\Thermal=0.1160269\Dipole=0.
 4325647,0.8491584,-0.0124829\DipoleDeriv=-0.028983,0.2005246,-0.003015
 6,-0.0308157,-0.0183676,-0.0037335,0.0024499,-0.0002493,-0.1532875,0.2
 914743,-0.5709474,0.0170652,-0.8146725,1.0249273,-0.0352413,0.0227245,
 -0.0315841,0.0578719,1.3198333,-0.0621601,0.0202923,0.255782,-0.144413
 ,0.0080455,0.01287,0.0033657,0.0369421,-0.0856117,-0.0707881,0.0027323
 ,0.1121472,0.0253896,-0.0027659,-0.0016394,-0.0055281,-0.1576527,-0.05
 75674,0.0690367,-0.0001574,-0.0583471,-0.012472,-0.0043956,0.0028603,-
 0.0025027,-0.1605079,0.0129262,-0.0521207,0.0037102,0.0916093,0.003485
 3,-0.0024506,0.0002777,-0.0045068,-0.1538572,0.057166,-0.0388449,-0.00
 03431,-0.0446399,-0.0139801,0.0031954,-0.0001857,0.0032719,0.1451859,-
 0.0774505,0.0010708,-0.0032182,-0.0011501,0.0635325,0.0018498,-0.00317
 61,0.0018662,0.140824,-0.6642474,0.6146974,-0.0194211,0.6053817,-1.095
 9009,0.0274106,-0.0189094,0.0271867,-0.3359367,0.3299052,-0.0926357,0.
 0024774,-0.0724902,0.3005045,-0.0011303,0.0017511,-0.0012184,0.3079958
 ,0.0246067,0.0571055,-0.0030989,0.0599956,-0.0418304,0.005311,-0.00316
 24,0.0052333,0.1424539,-0.0088089,-0.0831136,-0.00027,-0.0740805,-0.02
 27442,0.0029687,-0.0005009,0.0028748,0.1456677,-1.4936938,-0.0457995,-
 0.0159115,-0.0738256,-0.2426266,-0.0031265,-0.0149924,-0.0026603,-0.33
 66872,0.380451,0.0739749,-0.0008414,0.0451057,0.1744955,0.0040626,-0.0
 003671,0.0044512,0.320988\Polar=94.1960811,-2.8870341,89.4239834,0.762
 7814,-1.0644098,46.9814919\PG=C01 [X(C6H6O2)]\NImag=0\\0.71326253,0.01
 427899,0.74963748,0.00839031,-0.01517375,0.11345636,-0.35958580,-0.044
 40050,-0.00338049,0.77978457,0.00899786,-0.11977118,0.00170872,0.00562
 737,0.69281116,-0.00465887,0.00092846,-0.05445454,0.00935258,-0.013318
 47,0.13541685,-0.02584008,-0.02423356,0.00020764,-0.14943442,-0.132738
 35,0.00193459,0.68687926,-0.04613428,0.02574010,-0.00129276,-0.0627041
 0,-0.27126433,0.00408560,-0.01237584,0.76195972,0.00073705,-0.00097283
 ,0.00006953,0.00024051,0.00305310,-0.06358250,0.00847509,-0.01534827,0
 .13023242,-0.02686046,0.01833434,-0.00082419,0.04430906,0.01665190,0.0
 0022496,-0.16959273,0.06616919,-0.00331461,0.71335102,0.01172158,-0.00
 846477,0.00035570,-0.00615239,-0.04387426,0.00099131,0.12541433,-0.313
 32765,0.00812215,0.02083730,0.72781489,-0.00066156,0.00045069,-0.00080
 128,0.00078108,0.00133070,0.00093793,-0.00474517,0.00725438,-0.0516320
 7,0.00834360,-0.01460188,0.10827407,0.03962853,-0.00907953,0.00074549,
 -0.03005339,-0.02334853,0.00014914,-0.02327294,0.05719494,-0.00171624,
 -0.35523849,-0.01881107,-0.00405058,0.69513511,0.01171707,-0.05291311,
 0.00153394,-0.02295448,-0.01132343,-0.00009766,0.03117854,0.02309605,-
 0.00009742,0.02028799,-0.11406350,0.00190304,-0.02915818,0.73595136,0.
 00024331,0.00122821,0.00348169,0.00013650,-0.00010804,-0.00154853,-0.0
 0108968,0.00028446,0.00007141,-0.00499235,0.00133106,-0.04723834,0.009
 22201,-0.01543136,0.11192860,-0.18048713,0.12536344,-0.00495923,-0.025
 18063,0.03003590,-0.00107940,0.00260885,-0.00414491,0.00015636,-0.0305
 7298,-0.02885581,0.00019502,-0.17497347,-0.12340108,0.00115191,0.75103
 602,0.08663438,-0.29726212,0.00729237,0.05418785,0.02678621,0.00011822
 ,-0.00308766,-0.04455330,0.00099639,-0.05066187,0.01579483,-0.00103224
 ,-0.08379002,-0.29876437,0.00474368,0.00223772,0.68390317,-0.00403161,
 0.00785752,-0.04782665,-0.00165591,-0.00023161,-0.00103462,0.00013450,
 0.00098095,-0.00138871,0.00072260,-0.00071645,0.00361783,0.00019579,0.
 00416738,-0.05058569,0.00925545,-0.01367669,0.11534148,-0.12626588,-0.
 12347177,0.00161972,-0.00961811,-0.03021306,0.00052424,-0.00469135,0.0
 0152663,-0.00019282,-0.00143015,0.00106763,-0.00003186,-0.00079549,0.0
 0377164,-0.00020219,0.01190092,0.01530271,-0.00020660,0.12772234,-0.12
 542419,-0.28170107,0.00420554,0.00330432,0.00170609,0.00011540,0.00079
 843,0.00062534,0.00014103,0.00083401,0.00051089,-0.00002393,0.00384035
 ,-0.00295486,0.00029300,-0.01543832,-0.01554964,0.00016676,0.13327885,
 0.29599869,0.00166369,0.00423720,-0.03238200,-0.00028185,-0.00037566,0
 .00444006,-0.00017644,0.00015012,0.00600639,-0.00002752,-0.00002123,-0
 .00100235,-0.00020397,0.00029241,0.00683838,0.00053672,0.00061300,0.00
 070508,-0.00170652,-0.00464911,0.02356393,-0.01061685,-0.00389346,-0.0
 0007234,0.00130565,0.00221157,-0.00013131,0.00077541,0.00013564,0.0000
 1259,0.00048000,-0.00310969,-0.00001818,-0.01009497,0.00412095,-0.0002
 5324,-0.35091856,-0.00325940,-0.00460455,0.00085459,0.00004307,0.00006
 701,0.36900401,0.02807476,0.00381180,0.00033548,0.00188841,-0.00410802
 ,0.00028583,-0.00001102,-0.00218357,0.00004538,-0.00282428,-0.00442826
 ,0.00022948,-0.02786157,0.00446115,-0.00050445,-0.00339822,-0.05722036
 ,0.00058256,-0.00058872,0.00113765,-0.00012714,0.00340303,0.05719285,-
 0.00084114,-0.00013177,0.00076886,-0.00012390,0.00028954,0.00657508,0.
 00001578,0.00004777,-0.00029297,-0.00002376,0.00022550,0.00681283,0.00
 051723,-0.00003752,0.00043995,-0.00460250,0.00058590,-0.03108860,0.000
 08142,-0.00011823,-0.00377347,0.00496752,-0.00074850,0.02414029,-0.028
 28388,0.05291741,-0.00176549,-0.15782216,0.11870393,-0.00462190,-0.001
 92107,-0.00442134,-0.00004648,-0.00284746,-0.00204914,-0.00007863,0.00
 025264,0.00374138,-0.00007092,-0.00487139,-0.00713852,0.00003068,0.002
 96652,-0.00062824,0.00011234,-0.00112146,0.00180228,-0.00006602,0.6647
 7104,0.00957111,-0.00082179,0.00030101,0.06291879,-0.26722564,0.006314
 01,0.03230140,-0.05352755,0.00196607,-0.00913133,-0.00097120,0.0000298
 5,0.00410316,-0.00084287,0.00005445,-0.00208456,-0.00225052,0.00014169
 ,0.00019218,0.00070803,-0.00010178,0.00009439,0.00015419,0.00000889,-0
 .01670739,0.39153843,-0.00072797,0.00094364,0.00581675,-0.00334407,0.0
 0721248,-0.03909230,-0.00091772,0.00143739,0.00859812,0.00009621,0.000
 13900,0.00601355,-0.00008018,0.00004265,-0.00109811,-0.00009727,0.0000
 6728,0.00467105,0.00009295,-0.00011502,-0.00361882,-0.00002601,0.00003
 488,0.00044215,0.01065235,-0.00873713,0.02717607,0.00171462,0.00315122
 ,-0.00006087,-0.03102148,-0.00013242,-0.00046252,0.00456384,-0.0027257
 8,0.00011513,-0.00189645,-0.00051708,-0.00000485,0.00021060,-0.0005984
 5,0.00001778,-0.00101633,0.00009120,-0.00004620,0.00036666,0.00010201,
 0.00001037,0.00004332,0.00019102,-0.00000312,-0.48018145,-0.08322671,-
 0.00577993,0.50873823,0.00267795,-0.00702374,0.00021855,0.04486793,0.0
 0333726,0.00060604,0.00811990,-0.00322968,0.00023316,-0.00054112,0.000
 43274,-0.00003640,-0.00012096,-0.00030934,0.00000585,0.00109185,0.0012
 3405,0.00003187,-0.00000652,0.00009460,-0.00001553,0.00021234,-0.00040
 148,0.00001191,-0.13742784,-0.07126799,-0.00070134,0.08443373,0.075181
 04,-0.00004232,0.00021798,0.00041195,-0.00147712,-0.00014647,-0.001816
 73,-0.00015787,0.00007207,0.00137550,-0.00000682,-0.00003754,-0.000656
 47,0.00000463,0.00000036,-0.00003673,-0.00006592,0.00002082,0.00206424
 ,0.00001338,-0.00001445,-0.00058883,-0.00000325,0.00001060,-0.00003261
 ,-0.00454702,0.00019716,-0.00515036,0.00619230,-0.00021602,0.00618972,
 -0.00069277,-0.00337585,-0.00002638,-0.00142943,-0.00117226,0.00001302
 ,-0.00461762,-0.00165873,-0.00011566,-0.01065158,0.02789270,-0.0008282
 0,-0.13032841,0.12715748,-0.00452836,0.01125544,-0.01515297,0.00052427
 ,0.00049498,-0.00079739,0.00001952,0.00083450,0.00055346,0.00005338,0.
 00033691,0.00017555,0.00000850,-0.00002525,-0.00015750,0.00000579,0.13
 480765,-0.00384341,-0.00341664,0.00018722,-0.00135551,-0.00003490,-0.0
 0002833,-0.00106902,0.00175024,0.00008680,-0.00405773,0.00363998,-0.00
 014275,0.12741489,-0.27808407,0.00783263,0.01680659,-0.01642012,0.0006
 4676,0.00089382,-0.00090778,0.00004686,-0.00010557,0.00109985,-0.00011
 801,0.00018219,0.00017479,-0.00001447,-0.00000418,-0.00000310,-0.00000
 372,-0.13514512,0.29132471,-0.00001565,0.00019452,0.00669848,0.0000162
 1,-0.00002566,-0.00037454,-0.00012931,0.00007786,0.00600759,-0.0000617
 2,0.00032543,0.00016198,-0.00453323,0.00782590,-0.02949815,-0.00024377
 ,0.00018209,0.00027771,-0.00002114,0.00002214,0.00049016,0.00006974,-0
 .00010859,-0.00374615,0.00000891,-0.00001510,-0.00054910,0.00000194,-0
 .00000553,-0.00014740,0.00487242,-0.00840738,0.02354061,-0.00083692,0.
 00116763,-0.00002574,-0.00154782,0.00325102,-0.00018324,0.00735810,0.0
 1496440,-0.00029505,-0.12765836,-0.12280844,0.00151157,-0.00857300,-0.
 02889377,0.00056187,-0.00615752,0.00108892,-0.00021045,0.00006644,-0.0
 0010182,0.00000970,-0.00064721,-0.00154795,0.00002004,0.00056288,0.000
 93063,-0.00001184,0.00025826,-0.00003546,0.00000330,0.00131013,0.00033
 927,0.00006370,0.13229133,0.00134887,-0.00004135,-0.00000399,0.0036268
 7,-0.00213239,0.00024031,-0.01892416,-0.01836471,0.00023740,-0.1225463
 6,-0.27189947,0.00406127,0.00272726,0.00345527,-0.00002953,0.00051466,
 0.00210948,0.00011280,-0.00006010,-0.00003205,-0.00001032,0.00019428,0
 .00007245,0.00001389,-0.00025101,-0.00174639,0.00003415,-0.00044758,-0
 .00007416,-0.00000205,-0.00022948,0.00070340,-0.00010755,0.13254624,0.
 28576325,-0.00003030,-0.00000550,-0.00099572,-0.00019162,0.00023426,0.
 00566056,0.00051900,0.00072819,0.00293375,0.00150826,0.00406079,-0.028
 89447,-0.00020112,-0.00049282,0.00056009,-0.00019673,0.00012145,0.0064
 5763,0.00000866,-0.00001125,-0.00043125,-0.00002200,-0.00001153,0.0005
 3404,0.00001696,0.00005212,-0.00019343,0.00001251,0.00000469,0.0001427
 6,0.00007743,-0.00009859,-0.00361030,-0.00156886,-0.00443141,0.0213883
 2,0.00502427,-0.00471616,0.00011754,-0.05245422,-0.00086064,-0.0008647
 1,-0.29594138,0.03988644,-0.00475307,-0.03527597,-0.00357406,-0.000498
 95,-0.00141675,0.00322925,-0.00021274,-0.00327576,0.00333640,-0.000104
 92,-0.00106869,0.00006235,-0.00001643,0.00001745,0.00017991,0.00000741
 ,0.00703245,-0.00117298,0.00017766,-0.00143037,-0.00137315,0.00002162,
 -0.00159540,-0.00002877,-0.00003339,0.00378602,-0.00041997,0.00012781,
 0.48549201,0.00134258,-0.00800839,0.00032937,-0.04260489,-0.00513842,-
 0.00032200,-0.00944967,-0.10769763,0.00155081,0.04212982,0.00463341,0.
 00061936,-0.00372764,-0.00665456,0.00028899,0.00086562,0.00275967,-0.0
 0009438,-0.00176216,0.00021754,-0.00002997,-0.00000535,0.00050858,-0.0
 0003072,-0.00734038,0.00561286,-0.00032696,-0.00015518,0.00088291,-0.0
 0003395,0.00164977,0.00020274,0.00003776,0.00012023,0.00321441,-0.0001
 7306,0.16194959,0.56658896,-0.00003431,0.00023614,0.00475410,0.0001398
 0,0.00030395,0.00761197,-0.00363001,0.00227322,-0.03604041,-0.00160053
 ,-0.00005147,0.00465597,-0.00004078,0.00039487,0.00771586,-0.00004321,
 -0.00006107,-0.00164805,0.00002559,-0.00000422,0.00000742,0.00001156,-
 0.00002843,-0.00077433,0.00032676,-0.00024277,-0.00355841,-0.00000608,
 -0.00004587,-0.00047067,-0.00007443,0.00001286,0.00075663,0.00011326,-
 0.00018272,-0.00411260,0.00313555,-0.01023815,0.02123024,-0.00016017,-
 0.00204219,0.00003403,-0.00725181,0.00298571,-0.00019658,-0.02687386,-
 0.04571227,0.00069721,0.00388456,-0.00105588,0.00008671,-0.00047996,-0
 .00019833,0.00001609,0.00065254,0.00021127,-0.00000304,-0.00050278,0.0
 0012657,-0.00000661,0.00008412,0.00013889,-0.00000235,0.00112644,0.002
 03576,-0.00004268,-0.00032421,-0.00174115,0.00005929,0.00030085,-0.000
 02744,0.00000530,-0.00021232,0.00192048,-0.00006001,-0.10889366,-0.143
 01234,0.00167682,0.13865026,-0.00096326,0.00023477,0.00000258,0.003750
 32,0.00023185,0.00008130,0.00407669,0.00097697,-0.00001376,0.00451815,
 0.00420237,-0.00004158,0.00061689,-0.00105370,0.00001104,0.00040711,-0
 .00056698,0.00003085,0.00006885,0.00014656,-0.00000884,-0.00004181,-0.
 00009684,0.00000134,-0.00138332,0.00046564,-0.00001655,-0.00016179,0.0
 0114689,-0.00006480,0.00026035,-0.00002910,0.00000413,-0.00102091,-0.0
 0102773,0.00002266,-0.19649819,-0.45712209,0.00763365,0.18637093,0.452
 49138,0.00000938,-0.00001052,0.00100246,-0.00021174,0.00007315,0.00126
 131,-0.00044039,-0.00075098,-0.00235805,-0.00004413,-0.00012236,-0.000
 24918,-0.00000819,-0.00000376,-0.00103044,-0.00000741,0.00002882,0.000
 43731,-0.00000483,-0.00000768,-0.00025469,0.00000245,0.00000442,-0.000
 00506,0.00004847,0.00003153,0.00054284,0.00001354,-0.00009138,-0.00128
 437,-0.00000130,0.00000010,-0.00000752,0.00001173,0.00006775,0.0005606
 3,0.00289660,0.00842291,-0.00012772,-0.00226418,-0.00764201,0.00151248
 \\-0.00001296,0.00001496,0.00000417,-0.00005527,0.00002580,0.00001325,
 0.00012853,-0.00000771,-0.00001839,-0.00004964,-0.00001467,0.00000255,
 0.00001750,0.00000921,-0.00000191,-0.00001159,-0.00001643,0.00000029,0
 .00000831,-0.00001232,0.00000434,-0.00000336,0.00000066,-0.00000373,0.
 00001191,-0.00003269,-0.00002493,0.00000317,0.00000084,0.00001651,0.00
 000150,0.00000401,0.00000363,0.00001073,0.00000765,-0.00000075,-0.0000
 6443,0.00001719,0.00000580,0.00001557,0.00000350,-0.00000083\\\@


 ASKING FOR EFFICIENCY AND ADAPTABILITY IN THE SAME PROGRAM IS LIKE
 ASKING FOR A BEAUTIFUL AND MODEST WIFE ...
 WE'LL PROBABLY HAVE TO SETTLE FOR ONE OR THE OTHER.

             -- THE PSYCHOLOGY OF COMPUTER PROGRAMMING
                GERALD M. WEINBERG
 Job cpu time:       0 days 17 hours 13 minutes  3.2 seconds.
 Elapsed time:       0 days  8 hours  6 minutes 21.1 seconds.
 File lengths (MBytes):  RWF=  54288 Int=      0 D2E=      0 Chk=     15 Scr=      1
 Normal termination of Gaussian 16 at Wed Feb 15 18:26:10 2017.
