 Entering Gaussian System, Link 0=/opt/asn/apps/g09e01_ortiz/g09/g09
 Initial command:
 /opt/asn/apps/g09e01_ortiz/g09/l1.exe "/scratch/aubhfc.Cl2CinfvcomG09.68344/Gau-168453.inp" -scrdir="/scratch/aubhfc.Cl2CinfvcomG09.68344/"
 Entering Link 1 = /opt/asn/apps/g09e01_ortiz/g09/l1.exe PID=    168454.
  
 Copyright (c) 1988,1990,1992,1993,1995,1998,2003,2009,2015,
            Gaussian, Inc.  All Rights Reserved.
  
 This is part of the Gaussian(R) 09 program.  It is based on
 the Gaussian(R) 03 system (copyright 2003, Gaussian, Inc.),
 the Gaussian(R) 98 system (copyright 1998, Gaussian, Inc.),
 the Gaussian(R) 94 system (copyright 1995, Gaussian, Inc.),
 the Gaussian 92(TM) system (copyright 1992, Gaussian, Inc.),
 the Gaussian 90(TM) system (copyright 1990, Gaussian, Inc.),
 the Gaussian 88(TM) system (copyright 1988, Gaussian, Inc.),
 the Gaussian 86(TM) system (copyright 1986, Carnegie Mellon
 University), and the Gaussian 82(TM) system (copyright 1983,
 Carnegie Mellon University). Gaussian is a federally registered
 trademark of Gaussian, Inc.
  
 This software contains proprietary and confidential information,
 including trade secrets, belonging to Gaussian, Inc.
  
 This software is provided under written license and may be
 used, copied, transmitted, or stored only in accord with that
 written license.
  
 The following legend is applicable only to US Government
 contracts under FAR:
  
                    RESTRICTED RIGHTS LEGEND
  
 Use, reproduction and disclosure by the US Government is
 subject to restrictions as set forth in subparagraphs (a)
 and (c) of the Commercial Computer Software - Restricted
 Rights clause in FAR 52.227-19.
  
 Gaussian, Inc.
 340 Quinnipiac St., Bldg. 40, Wallingford CT 06492
  
  
 ---------------------------------------------------------------
 Warning -- This program may not be used in any manner that
 competes with the business of Gaussian, Inc. or will provide
 assistance to any competitor of Gaussian, Inc.  The licensee
 of this program is prohibited from giving any competitor of
 Gaussian, Inc. access to this program.  By using this program,
 the user acknowledges that Gaussian, Inc. is engaged in the
 business of creating and licensing software in the field of
 computational chemistry and represents and warrants to the
 licensee that it is not a competitor of Gaussian, Inc. and that
 it will not use this program in any manner prohibited above.
 ---------------------------------------------------------------
  

 Cite this work as:
 Gaussian 09, Revision E.01,
 M. J. Frisch, G. W. Trucks, H. B. Schlegel, G. E. Scuseria, 
 M. A. Robb, J. R. Cheeseman, G. Scalmani, V. Barone, B. Mennucci, 
 G. A. Petersson, H. Nakatsuji, M. Caricato, X. Li, H. P. Hratchian, 
 A. F. Izmaylov, J. Bloino, G. Zheng, J. L. Sonnenberg, M. Hada, 
 M. Ehara, K. Toyota, R. Fukuda, J. Hasegawa, M. Ishida, T. Nakajima, 
 Y. Honda, O. Kitao, H. Nakai, T. Vreven, J. A. Montgomery, Jr., 
 J. E. Peralta, F. Ogliaro, M. Bearpark, J. J. Heyd, E. Brothers, 
 K. N. Kudin, V. N. Staroverov, T. Keith, R. Kobayashi, J. Normand, 
 K. Raghavachari, A. Rendell, J. C. Burant, S. S. Iyengar, J. Tomasi, 
 M. Cossi, N. Rega, J. M. Millam, M. Klene, J. E. Knox, J. B. Cross, 
 V. Bakken, C. Adamo, J. Jaramillo, R. Gomperts, R. E. Stratmann, 
 O. Yazyev, A. J. Austin, R. Cammi, C. Pomelli, J. W. Ochterski, 
 R. L. Martin, K. Morokuma, V. G. Zakrzewski, G. A. Voth, 
 P. Salvador, J. J. Dannenberg, S. Dapprich, A. D. Daniels, 
 O. Farkas, J. B. Foresman, J. V. Ortiz, J. Cioslowski, 
 and D. J. Fox, Gaussian, Inc., Wallingford CT, 2013.
 
 ******************************************
 Gaussian 09:  ES64L-G09RevE.01 30-Nov-2015
                31-Jan-2017 
 ******************************************
 %nprocshared=8
 Will use up to    8 processors via shared memory.
 -------------------------------
 #mp2/6-311++g(2df,2pd) opt freq
 -------------------------------
 1/18=20,19=15,38=1/1,3;
 2/9=110,12=2,17=6,18=5,40=1/2;
 3/5=4,6=6,7=1414,11=9,16=1,25=1,30=1,71=1/1,2,3;
 4//1;
 5/5=2,38=5/2;
 8/6=4,10=2/1;
 9/15=2,16=-3/6;
 10/5=1/2;
 6/7=2,8=2,9=2,10=2/1;
 7/12=2/1,2,3,16;
 1/18=20,19=15/3(2);
 2/9=110/2;
 99//99;
 2/9=110/2;
 3/5=4,6=6,7=1414,11=9,16=1,25=1,30=1,71=1/1,2,3;
 4/5=5,16=3,69=1/1;
 5/5=2,38=5/2;
 8/6=4,10=2/1;
 9/15=2,16=-3/6;
 10/5=1/2;
 7/12=2/1,2,3,16;
 1/18=20,19=15/3(-8);
 2/9=110/2;
 6/7=2,8=2,9=2,10=2/1;
 99//99;
 ---------
 Cl2_Cinfv
 ---------
 Symbolic Z-matrix:
 Charge =  0 Multiplicity = 1
 Cl                   0     0.        0.       -1.0142 
 Cl                   0     0.        0.        1.0142 
 

 GradGradGradGradGradGradGradGradGradGradGradGradGradGradGradGradGradGrad
 Berny optimization.
 Initialization pass.
                           ----------------------------
                           !    Initial Parameters    !
                           ! (Angstroms and Degrees)  !
 --------------------------                            --------------------------
 ! Name  Definition              Value          Derivative Info.                !
 --------------------------------------------------------------------------------
 ! R1    R(1,2)                  2.0284         estimate D2E/DX2                !
 --------------------------------------------------------------------------------
 Trust Radius=3.00D-01 FncErr=1.00D-07 GrdErr=1.00D-07
 Number of steps in this run=     20 maximum allowed number of steps=    100.
 GradGradGradGradGradGradGradGradGradGradGradGradGradGradGradGradGradGrad

                          Input orientation:                          
 ---------------------------------------------------------------------
 Center     Atomic      Atomic             Coordinates (Angstroms)
 Number     Number       Type             X           Y           Z
 ---------------------------------------------------------------------
      1         17           0        0.000000    0.000000   -1.014197
      2         17           0        0.000000    0.000000    1.014197
 ---------------------------------------------------------------------
 Stoichiometry    Cl2
 Framework group  D*H[C*(Cl.Cl)]
 Deg. of freedom     1
 Full point group                 D*H     NOp   8
 Largest Abelian subgroup         D2H     NOp   8
 Largest concise Abelian subgroup C2      NOp   2
                         Standard orientation:                         
 ---------------------------------------------------------------------
 Center     Atomic      Atomic             Coordinates (Angstroms)
 Number     Number       Type             X           Y           Z
 ---------------------------------------------------------------------
      1         17           0        0.000000    0.000000    1.014197
      2         17           0        0.000000    0.000000   -1.014197
 ---------------------------------------------------------------------
 Rotational constants (GHZ):      0.0000000      7.0252397      7.0252397
 Standard basis: 6-311++G(2df,2pd) (5D, 7F)
 There are    22 symmetry adapted cartesian basis functions of AG  symmetry.
 There are     3 symmetry adapted cartesian basis functions of B1G symmetry.
 There are    11 symmetry adapted cartesian basis functions of B2G symmetry.
 There are    11 symmetry adapted cartesian basis functions of B3G symmetry.
 There are     3 symmetry adapted cartesian basis functions of AU  symmetry.
 There are    22 symmetry adapted cartesian basis functions of B1U symmetry.
 There are    11 symmetry adapted cartesian basis functions of B2U symmetry.
 There are    11 symmetry adapted cartesian basis functions of B3U symmetry.
 There are    19 symmetry adapted basis functions of AG  symmetry.
 There are     3 symmetry adapted basis functions of B1G symmetry.
 There are    10 symmetry adapted basis functions of B2G symmetry.
 There are    10 symmetry adapted basis functions of B3G symmetry.
 There are     3 symmetry adapted basis functions of AU  symmetry.
 There are    19 symmetry adapted basis functions of B1U symmetry.
 There are    10 symmetry adapted basis functions of B2U symmetry.
 There are    10 symmetry adapted basis functions of B3U symmetry.
    84 basis functions,   138 primitive gaussians,    94 cartesian basis functions
    17 alpha electrons       17 beta electrons
       nuclear repulsion energy        75.3957112481 Hartrees.
 NAtoms=    2 NActive=    2 NUniq=    1 SFac= 4.00D+00 NAtFMM=   60 NAOKFM=F Big=F
 Integral buffers will be    131072 words long.
 Raffenetti 1 integral format.
 Two-electron integral symmetry is turned on.
 One-electron integrals computed using PRISM.
 PrsmSu:  requested number of processors reduced to:   4 ShMem   1 Linda.
 NBasis=    84 RedAO= T EigKep=  4.71D-03  NBF=    19     3    10    10     3    19    10    10
 NBsUse=    84 1.00D-06 EigRej= -1.00D+00 NBFU=    19     3    10    10     3    19    10    10
 ExpMin= 4.83D-02 ExpMax= 1.06D+05 ExpMxC= 3.62D+03 IAcc=2 IRadAn=         4 AccDes= 0.00D+00
 Harris functional with IExCor=  205 and IRadAn=       4 diagonalized for initial guess.
 HarFok:  IExCor=  205 AccDes= 0.00D+00 IRadAn=         4 IDoV= 1 UseB2=F ITyADJ=14
 ICtDFT=  3500011 ScaDFX=  1.000000  1.000000  1.000000  1.000000
 FoFCou: FMM=F IPFlag=           0 FMFlag=      100000 FMFlg1=           0
         NFxFlg=           0 DoJE=T BraDBF=F KetDBF=T FulRan=T
         wScrn=  0.000000 ICntrl=     500 IOpCl=  0 I1Cent=   200000004 NGrid=           0
         NMat0=    1 NMatS0=      1 NMatT0=    0 NMatD0=    1 NMtDS0=    0 NMtDT0=    0
 Petite list used in FoFCou.
 Initial guess orbital symmetries:
       Occupied  (SGU) (SGG) (SGU) (SGG) (SGG) (SGU) (PIU) (PIU)
                 (PIG) (PIG) (SGG) (SGU) (SGG) (PIU) (PIU) (PIG)
                 (PIG)
       Virtual   (SGU) (SGG) (SGU) (PIU) (PIU) (SGG) (PIG) (PIG)
                 (SGU) (PIU) (PIU) (SGG) (DLTG) (DLTG) (SGU) (PIU)
                 (PIU) (PIG) (PIG) (DLTU) (DLTU) (SGG) (PIG) (PIG)
                 (SGU) (SGG) (SGU) (PIU) (PIU) (DLTG) (DLTG) (SGG)
                 (PHIU) (PHIU) (PHIG) (PHIG) (DLTU) (DLTU) (PIG)
                 (PIG) (SGU) (PIU) (PIU) (SGG) (DLTG) (DLTG) (PIU)
                 (PIU) (PIG) (PIG) (SGU) (DLTU) (DLTU) (SGG) (PIG)
                 (PIG) (SGU) (SGG) (SGU) (PIU) (PIU) (PIG) (PIG)
                 (SGG) (SGU) (SGG) (SGU)
 The electronic state of the initial guess is 1-SGG.
 Keep R1 ints in memory in symmetry-blocked form, NReq=8403597.
 Requested convergence on RMS density matrix=1.00D-08 within 128 cycles.
 Requested convergence on MAX density matrix=1.00D-06.
 Requested convergence on             energy=1.00D-06.
 No special actions if energy rises.
 SCF Done:  E(RHF) =  -918.982779540     A.U. after    9 cycles
            NFock=  9  Conv=0.87D-08     -V/T= 2.0001
 ExpMin= 4.83D-02 ExpMax= 1.06D+05 ExpMxC= 3.62D+03 IAcc=3 IRadAn=         5 AccDes= 0.00D+00
 HarFok:  IExCor=  205 AccDes= 0.00D+00 IRadAn=         5 IDoV=-2 UseB2=F ITyADJ=14
 ICtDFT= 12500011 ScaDFX=  1.000000  1.000000  1.000000  1.000000
 Range of M.O.s used for correlation:    11    84
 NBasis=    84 NAE=    17 NBE=    17 NFC=    10 NFV=     0
 NROrb=     74 NOA=     7 NOB=     7 NVA=    67 NVB=    67
 Fully direct method using O(ONN) memory.
 JobTyp=1 Pass  1:  I=  11 to  17 NPSUse=  1 ParTrn=F ParDer=F DoDerP=T.
 Spin components of T(2) and E(2):
     alpha-alpha T2 =       0.1815743745D-01 E2=     -0.4578961494D-01
     alpha-beta  T2 =       0.1024121873D+00 E2=     -0.2775751290D+00
     beta-beta   T2 =       0.1815743745D-01 E2=     -0.4578961494D-01
 ANorm=    0.1067111551D+01
 E2 =    -0.3691543589D+00 EUMP2 =    -0.91935193389875D+03
          IDoAtm=11
          Differentiating once with respect to electric field.
                with respect to dipole field.
          Differentiating once with respect to nuclear coordinates.
 Keep R1 ints in memory in symmetry-blocked form, NReq=8371550.
          There are     1 degrees of freedom in the 1st order CPHF.  IDoFFX=0 NUNeed=     1.
 LinEq1:  Iter=  0 NonCon=     1 RMS=3.09D-03 Max=5.16D-02 NDo=     1
 AX will form     1 AO Fock derivatives at one time.
 LinEq1:  Iter=  1 NonCon=     1 RMS=5.72D-04 Max=1.06D-02 NDo=     1
 LinEq1:  Iter=  2 NonCon=     1 RMS=1.50D-04 Max=2.02D-03 NDo=     1
 LinEq1:  Iter=  3 NonCon=     1 RMS=3.64D-05 Max=4.41D-04 NDo=     1
 LinEq1:  Iter=  4 NonCon=     1 RMS=4.85D-06 Max=6.42D-05 NDo=     1
 LinEq1:  Iter=  5 NonCon=     1 RMS=5.30D-07 Max=7.27D-06 NDo=     1
 LinEq1:  Iter=  6 NonCon=     1 RMS=6.90D-08 Max=7.96D-07 NDo=     1
 LinEq1:  Iter=  7 NonCon=     1 RMS=8.34D-09 Max=7.93D-08 NDo=     1
 LinEq1:  Iter=  8 NonCon=     1 RMS=5.16D-10 Max=5.35D-09 NDo=     1
 LinEq1:  Iter=  9 NonCon=     0 RMS=3.51D-11 Max=3.88D-10 NDo=     1
 Linear equations converged to 1.000D-10 1.000D-09 after     9 iterations.
 End of Minotr F.D. properties file   721 does not exist.
 End of Minotr F.D. properties file   722 does not exist.
 End of Minotr F.D. properties file   788 does not exist.

 **********************************************************************

            Population analysis using the SCF density.

 **********************************************************************

 Orbital symmetries:
       Occupied  (SGG) (SGU) (SGG) (SGU) (SGG) (SGU) (PIU) (PIU)
                 (PIG) (PIG) (SGG) (SGU) (SGG) (PIU) (PIU) (PIG)
                 (PIG)
       Virtual   (SGU) (SGG) (SGU) (PIU) (PIU) (SGG) (PIG) (PIG)
                 (SGU) (SGG) (PIU) (PIU) (SGU) (PIU) (PIU) (DLTG)
                 (DLTG) (PIG) (PIG) (DLTU) (DLTU) (SGG) (PIG) (PIG)
                 (SGU) (SGG) (SGU) (PIU) (PIU) (DLTG) (DLTG) (SGG)
                 (PHIU) (PHIU) (PHIG) (PHIG) (DLTU) (DLTU) (PIG)
                 (PIG) (SGU) (PIU) (PIU) (SGG) (PIU) (PIU) (DLTG)
                 (DLTG) (PIG) (PIG) (SGU) (DLTU) (DLTU) (SGG) (PIG)
                 (PIG) (SGU) (SGG) (SGU) (PIU) (PIU) (PIG) (PIG)
                 (SGG) (SGU) (SGG) (SGU)
 The electronic state is 1-SGG.
 Alpha  occ. eigenvalues -- -104.90026-104.90026 -10.62200 -10.62187  -8.08979
 Alpha  occ. eigenvalues --   -8.08958  -8.08656  -8.08656  -8.08656  -8.08656
 Alpha  occ. eigenvalues --   -1.20811  -1.02010  -0.59155  -0.56579  -0.56579
 Alpha  occ. eigenvalues --   -0.44876  -0.44876
 Alpha virt. eigenvalues --    0.01648   0.09944   0.11893   0.11928   0.11928
 Alpha virt. eigenvalues --    0.14854   0.15086   0.15086   0.24305   0.48636
 Alpha virt. eigenvalues --    0.49989   0.49989   0.53751   0.57705   0.57705
 Alpha virt. eigenvalues --    0.59081   0.59081   0.59799   0.59799   0.68864
 Alpha virt. eigenvalues --    0.68864   0.78400   0.89679   0.89679   0.94870
 Alpha virt. eigenvalues --    1.03074   1.43156   2.09945   2.09945   2.20218
 Alpha virt. eigenvalues --    2.20218   2.23209   2.34202   2.34202   2.38040
 Alpha virt. eigenvalues --    2.38040   2.46717   2.46717   2.49520   2.49520
 Alpha virt. eigenvalues --    2.50910   2.55595   2.55595   2.56415   2.67038
 Alpha virt. eigenvalues --    2.67038   2.67171   2.67171   2.67665   2.67665
 Alpha virt. eigenvalues --    2.73538   2.77012   2.77012   3.01793   3.21974
 Alpha virt. eigenvalues --    3.21974   4.33965  10.21077  10.35317  26.52113
 Alpha virt. eigenvalues --   26.52113  26.76387  26.76387  26.94603  28.49262
 Alpha virt. eigenvalues --  219.02822 219.21482
          Condensed to atoms (all electrons):
               1          2
     1  Cl  16.847811   0.152189
     2  Cl   0.152189  16.847811
 Mulliken charges:
               1
     1  Cl   0.000000
     2  Cl   0.000000
 Sum of Mulliken charges =   0.00000
 Mulliken charges with hydrogens summed into heavy atoms:
               1
     1  Cl   0.000000
     2  Cl   0.000000
 Electronic spatial extent (au):  <R**2>=            179.6515
 Charge=             -0.0000 electrons
 Dipole moment (field-independent basis, Debye):
    X=              0.0000    Y=              0.0000    Z=              0.0000  Tot=              0.0000
 Quadrupole moment (field-independent basis, Debye-Ang):
   XX=            -25.7110   YY=            -25.7110   ZZ=            -22.2365
   XY=              0.0000   XZ=              0.0000   YZ=              0.0000
 Traceless Quadrupole moment (field-independent basis, Debye-Ang):
   XX=             -1.1582   YY=             -1.1582   ZZ=              2.3164
   XY=              0.0000   XZ=              0.0000   YZ=              0.0000
 Octapole moment (field-independent basis, Debye-Ang**2):
  XXX=             -0.0000  YYY=              0.0000  ZZZ=             -0.0000  XYY=             -0.0000
  XXY=             -0.0000  XXZ=              0.0000  XZZ=             -0.0000  YZZ=             -0.0000
  YYZ=              0.0000  XYZ=              0.0000
 Hexadecapole moment (field-independent basis, Debye-Ang**3):
 XXXX=            -29.4346 YYYY=            -29.4346 ZZZZ=           -155.4743 XXXY=              0.0000
 XXXZ=              0.0000 YYYX=              0.0000 YYYZ=              0.0000 ZZZX=              0.0000
 ZZZY=              0.0000 XXYY=             -9.8115 XXZZ=            -36.1068 YYZZ=            -36.1068
 XXYZ=              0.0000 YYXZ=              0.0000 ZZXY=             -0.0000
 N-N= 7.539571124815D+01 E-N=-2.338836404059D+03  KE= 9.189171450868D+02
 Symmetry AG   KE= 3.693814674130D+02
 Symmetry B1G  KE= 1.505672272717D-34
 Symmetry B2G  KE= 4.633338454487D+01
 Symmetry B3G  KE= 4.633338454487D+01
 Symmetry AU   KE= 3.202273033447D-34
 Symmetry B1U  KE= 3.657006908841D+02
 Symmetry B2U  KE= 4.558410885000D+01
 Symmetry B3U  KE= 4.558410885000D+01
 PrsmSu:  requested number of processors reduced to:   4 ShMem   1 Linda.
 Calling FoFJK, ICntrl=  10002127 FMM=F ISym2X=1 I1Cent= 0 IOpClX= 0 NMat=1 NMatS=1 NMatT=0.
 ***** Axes restored to original set *****
 -------------------------------------------------------------------
 Center     Atomic                   Forces (Hartrees/Bohr)
 Number     Number              X              Y              Z
 -------------------------------------------------------------------
      1       17           0.000000000    0.000000000    0.013066726
      2       17          -0.000000000   -0.000000000   -0.013066726
 -------------------------------------------------------------------
 Cartesian Forces:  Max     0.013066726 RMS     0.007544078

 GradGradGradGradGradGradGradGradGradGradGradGradGradGradGradGradGradGrad
 Berny optimization.
 FormGI is forming the generalized inverse of G from B-inverse, IUseBI=4.
 Internal  Forces:  Max     0.013066726 RMS     0.013066726
 Search for a local minimum.
 Step number   1 out of a maximum of   20
 All quantities printed in internal units (Hartrees-Bohrs-Radians)
 Mixed Optimization -- RFO/linear search
 Second derivative matrix not updated -- first step.
 The second derivative matrix:
                          R1
           R1           0.31531
 ITU=  0
     Eigenvalues ---    0.31531
 RFO step:  Lambda=-5.40574245D-04 EMin= 3.15307501D-01
 Linear search not attempted -- first point.
 Iteration  1 RMS(Cart)=  0.02925321 RMS(Int)=  0.00000000
 Iteration  2 RMS(Cart)=  0.00000000 RMS(Int)=  0.00000000
 ClnCor:  largest displacement from symmetrization is 1.27D-18 for atom     1.
 Variable       Old X    -DE/DX   Delta X   Delta X   Delta X     New X
                                 (Linear)    (Quad)   (Total)
    R1        3.83311  -0.01307   0.00000  -0.04137  -0.04137   3.79174
         Item               Value     Threshold  Converged?
 Maximum Force            0.013067     0.000450     NO 
 RMS     Force            0.013067     0.000300     NO 
 Maximum Displacement     0.020685     0.001800     NO 
 RMS     Displacement     0.029253     0.001200     NO 
 Predicted change in Energy=-2.707497D-04
 GradGradGradGradGradGradGradGradGradGradGradGradGradGradGradGradGradGrad

                          Input orientation:                          
 ---------------------------------------------------------------------
 Center     Atomic      Atomic             Coordinates (Angstroms)
 Number     Number       Type             X           Y           Z
 ---------------------------------------------------------------------
      1         17           0        0.000000    0.000000   -1.003251
      2         17           0        0.000000    0.000000    1.003251
 ---------------------------------------------------------------------
 Stoichiometry    Cl2
 Framework group  D*H[C*(Cl.Cl)]
 Deg. of freedom     1
 Full point group                 D*H     NOp   8
 Largest Abelian subgroup         D2H     NOp   8
 Largest concise Abelian subgroup C2      NOp   2
                         Standard orientation:                         
 ---------------------------------------------------------------------
 Center     Atomic      Atomic             Coordinates (Angstroms)
 Number     Number       Type             X           Y           Z
 ---------------------------------------------------------------------
      1         17           0        0.000000    0.000000    1.003251
      2         17           0        0.000000    0.000000   -1.003251
 ---------------------------------------------------------------------
 Rotational constants (GHZ):      0.0000000      7.1793757      7.1793757
 Standard basis: 6-311++G(2df,2pd) (5D, 7F)
 There are    22 symmetry adapted cartesian basis functions of AG  symmetry.
 There are     3 symmetry adapted cartesian basis functions of B1G symmetry.
 There are    11 symmetry adapted cartesian basis functions of B2G symmetry.
 There are    11 symmetry adapted cartesian basis functions of B3G symmetry.
 There are     3 symmetry adapted cartesian basis functions of AU  symmetry.
 There are    22 symmetry adapted cartesian basis functions of B1U symmetry.
 There are    11 symmetry adapted cartesian basis functions of B2U symmetry.
 There are    11 symmetry adapted cartesian basis functions of B3U symmetry.
 There are    19 symmetry adapted basis functions of AG  symmetry.
 There are     3 symmetry adapted basis functions of B1G symmetry.
 There are    10 symmetry adapted basis functions of B2G symmetry.
 There are    10 symmetry adapted basis functions of B3G symmetry.
 There are     3 symmetry adapted basis functions of AU  symmetry.
 There are    19 symmetry adapted basis functions of B1U symmetry.
 There are    10 symmetry adapted basis functions of B2U symmetry.
 There are    10 symmetry adapted basis functions of B3U symmetry.
    84 basis functions,   138 primitive gaussians,    94 cartesian basis functions
    17 alpha electrons       17 beta electrons
       nuclear repulsion energy        76.2183265170 Hartrees.
 NAtoms=    2 NActive=    2 NUniq=    1 SFac= 4.00D+00 NAtFMM=   60 NAOKFM=F Big=F
 Integral buffers will be    131072 words long.
 Raffenetti 1 integral format.
 Two-electron integral symmetry is turned on.
 One-electron integrals computed using PRISM.
 PrsmSu:  requested number of processors reduced to:   4 ShMem   1 Linda.
 NBasis=    84 RedAO= T EigKep=  4.44D-03  NBF=    19     3    10    10     3    19    10    10
 NBsUse=    84 1.00D-06 EigRej= -1.00D+00 NBFU=    19     3    10    10     3    19    10    10
 Initial guess from the checkpoint file:  "/scratch/aubhfc.Cl2CinfvcomG09.68344/Gau-168454.chk"
 B after Tr=    -0.000000    0.000000    0.000000
         Rot=    1.000000    0.000000    0.000000    0.000000 Ang=   0.00 deg.
 Initial guess orbital symmetries:
       Occupied  (SGG) (SGU) (SGG) (SGU) (SGG) (SGU) (PIU) (PIU)
                 (PIG) (PIG) (SGG) (SGU) (SGG) (PIU) (PIU) (PIG)
                 (PIG)
       Virtual   (SGG) (SGG) (SGG) (SGG) (SGG) (DLTG) (SGG) (SGG)
                 (DLTG) (SGG) (SGG) (DLTG) (SGG) (SGG) (DLTG) (DLTG)
                 (DLTG) (PIG) (PIG) (PIG) (PHIG) (PIG) (PIG) (PIG)
                 (PIG) (PIG) (PIG) (PIG) (PHIG) (PIG) (PIG) (PIG)
                 (PIG) (DLTU) (DLTU) (DLTU) (SGU) (SGU) (SGU) (SGU)
                 (DLTU) (SGU) (SGU) (DLTU) (SGU) (SGU) (DLTU) (SGU)
                 (SGU) (SGU) (SGU) (PIU) (PIU) (PIU) (PIU) (PIU)
                 (PHIU) (PIU) (PIU) (PIU) (PIU) (PIU) (PIU) (PIU)
                 (PHIU) (PIU) (PIU)
 ExpMin= 4.83D-02 ExpMax= 1.06D+05 ExpMxC= 3.62D+03 IAcc=2 IRadAn=         4 AccDes= 0.00D+00
 Harris functional with IExCor=  205 and IRadAn=       4 diagonalized for initial guess.
 HarFok:  IExCor=  205 AccDes= 0.00D+00 IRadAn=         4 IDoV= 1 UseB2=F ITyADJ=14
 ICtDFT=  3500011 ScaDFX=  1.000000  1.000000  1.000000  1.000000
 FoFCou: FMM=F IPFlag=           0 FMFlag=      100000 FMFlg1=           0
         NFxFlg=           0 DoJE=T BraDBF=F KetDBF=T FulRan=T
         wScrn=  0.000000 ICntrl=     500 IOpCl=  0 I1Cent=   200000004 NGrid=           0
         NMat0=    1 NMatS0=      1 NMatT0=    0 NMatD0=    1 NMtDS0=    0 NMtDT0=    0
 Petite list used in FoFCou.
 Keep R1 ints in memory in symmetry-blocked form, NReq=8403625.
 Requested convergence on RMS density matrix=1.00D-08 within 128 cycles.
 Requested convergence on MAX density matrix=1.00D-06.
 Requested convergence on             energy=1.00D-06.
 No special actions if energy rises.
 SCF Done:  E(RHF) =  -918.983445323     A.U. after    7 cycles
            NFock=  7  Conv=0.63D-08     -V/T= 2.0000
 ExpMin= 4.83D-02 ExpMax= 1.06D+05 ExpMxC= 3.62D+03 IAcc=3 IRadAn=         5 AccDes= 0.00D+00
 HarFok:  IExCor=  205 AccDes= 0.00D+00 IRadAn=         5 IDoV=-2 UseB2=F ITyADJ=14
 ICtDFT= 12500011 ScaDFX=  1.000000  1.000000  1.000000  1.000000
 Range of M.O.s used for correlation:    11    84
 NBasis=    84 NAE=    17 NBE=    17 NFC=    10 NFV=     0
 NROrb=     74 NOA=     7 NOB=     7 NVA=    67 NVB=    67
 Fully direct method using O(ONN) memory.
 JobTyp=1 Pass  1:  I=  11 to  17 NPSUse=  1 ParTrn=F ParDer=F DoDerP=T.
 Spin components of T(2) and E(2):
     alpha-alpha T2 =       0.1813063210D-01 E2=     -0.4586451625D-01
     alpha-beta  T2 =       0.1016856811D+00 E2=     -0.2771315178D+00
     beta-beta   T2 =       0.1813063210D-01 E2=     -0.4586451625D-01
 ANorm=    0.1066745961D+01
 E2 =    -0.3688605503D+00 EUMP2 =    -0.91935230587285D+03
          IDoAtm=11
          Differentiating once with respect to electric field.
                with respect to dipole field.
          Differentiating once with respect to nuclear coordinates.
 Keep R1 ints in memory in symmetry-blocked form, NReq=8371550.
          There are     1 degrees of freedom in the 1st order CPHF.  IDoFFX=0 NUNeed=     1.
 LinEq1:  Iter=  0 NonCon=     1 RMS=3.06D-03 Max=4.97D-02 NDo=     1
 AX will form     1 AO Fock derivatives at one time.
 LinEq1:  Iter=  1 NonCon=     1 RMS=5.70D-04 Max=1.05D-02 NDo=     1
 LinEq1:  Iter=  2 NonCon=     1 RMS=1.50D-04 Max=2.04D-03 NDo=     1
 LinEq1:  Iter=  3 NonCon=     1 RMS=3.61D-05 Max=4.30D-04 NDo=     1
 LinEq1:  Iter=  4 NonCon=     1 RMS=4.76D-06 Max=6.32D-05 NDo=     1
 LinEq1:  Iter=  5 NonCon=     1 RMS=5.19D-07 Max=7.03D-06 NDo=     1
 LinEq1:  Iter=  6 NonCon=     1 RMS=6.73D-08 Max=7.37D-07 NDo=     1
 LinEq1:  Iter=  7 NonCon=     1 RMS=8.08D-09 Max=7.56D-08 NDo=     1
 LinEq1:  Iter=  8 NonCon=     1 RMS=5.10D-10 Max=5.50D-09 NDo=     1
 LinEq1:  Iter=  9 NonCon=     0 RMS=3.59D-11 Max=3.98D-10 NDo=     1
 Linear equations converged to 1.000D-10 1.000D-09 after     9 iterations.
 End of Minotr F.D. properties file   721 does not exist.
 End of Minotr F.D. properties file   722 does not exist.
 End of Minotr F.D. properties file   788 does not exist.
 PrsmSu:  requested number of processors reduced to:   4 ShMem   1 Linda.
 Calling FoFJK, ICntrl=  10002127 FMM=F ISym2X=1 I1Cent= 0 IOpClX= 0 NMat=1 NMatS=1 NMatT=0.
 ***** Axes restored to original set *****
 -------------------------------------------------------------------
 Center     Atomic                   Forces (Hartrees/Bohr)
 Number     Number              X              Y              Z
 -------------------------------------------------------------------
      1       17           0.000000000    0.000000000    0.004769453
      2       17          -0.000000000   -0.000000000   -0.004769453
 -------------------------------------------------------------------
 Cartesian Forces:  Max     0.004769453 RMS     0.002753645

 GradGradGradGradGradGradGradGradGradGradGradGradGradGradGradGradGradGrad
 Berny optimization.
 Using GEDIIS/GDIIS optimizer.
 Internal  Forces:  Max     0.004769453 RMS     0.004769453
 Search for a local minimum.
 Step number   2 out of a maximum of   20
 All quantities printed in internal units (Hartrees-Bohrs-Radians)
 Mixed Optimization -- RFO/linear search
 Update second derivatives using D2CorX and points    1    2
 DE= -3.72D-04 DEPred=-2.71D-04 R= 1.37D+00
 TightC=F SS=  1.41D+00  RLast= 4.14D-02 DXNew= 5.0454D-01 1.2411D-01
 Trust test= 1.37D+00 RLast= 4.14D-02 DXMaxT set to 3.00D-01
 The second derivative matrix:
                          R1
           R1           0.20056
 ITU=  1  0
 Use linear search instead of GDIIS.
     Eigenvalues ---    0.20056
 RFO step:  Lambda= 0.00000000D+00 EMin= 2.00561158D-01
 Quartic linear search produced a step of  0.53098.
 Iteration  1 RMS(Cart)=  0.01553290 RMS(Int)=  0.00000000
 Iteration  2 RMS(Cart)=  0.00000000 RMS(Int)=  0.00000000
 ClnCor:  largest displacement from symmetrization is 6.73D-19 for atom     1.
 Variable       Old X    -DE/DX   Delta X   Delta X   Delta X     New X
                                 (Linear)    (Quad)   (Total)
    R1        3.79174  -0.00477  -0.02197   0.00000  -0.02197   3.76977
         Item               Value     Threshold  Converged?
 Maximum Force            0.004769     0.000450     NO 
 RMS     Force            0.004769     0.000300     NO 
 Maximum Displacement     0.010983     0.001800     NO 
 RMS     Displacement     0.015533     0.001200     NO 
 Predicted change in Energy=-5.638022D-05
 GradGradGradGradGradGradGradGradGradGradGradGradGradGradGradGradGradGrad

                          Input orientation:                          
 ---------------------------------------------------------------------
 Center     Atomic      Atomic             Coordinates (Angstroms)
 Number     Number       Type             X           Y           Z
 ---------------------------------------------------------------------
      1         17           0        0.000000    0.000000   -0.997439
      2         17           0        0.000000    0.000000    0.997439
 ---------------------------------------------------------------------
 Stoichiometry    Cl2
 Framework group  D*H[C*(Cl.Cl)]
 Deg. of freedom     1
 Full point group                 D*H     NOp   8
 Largest Abelian subgroup         D2H     NOp   8
 Largest concise Abelian subgroup C2      NOp   2
                         Standard orientation:                         
 ---------------------------------------------------------------------
 Center     Atomic      Atomic             Coordinates (Angstroms)
 Number     Number       Type             X           Y           Z
 ---------------------------------------------------------------------
      1         17           0        0.000000    0.000000    0.997439
      2         17           0        0.000000    0.000000   -0.997439
 ---------------------------------------------------------------------
 Rotational constants (GHZ):      0.0000000      7.2632893      7.2632893
 Standard basis: 6-311++G(2df,2pd) (5D, 7F)
 There are    22 symmetry adapted cartesian basis functions of AG  symmetry.
 There are     3 symmetry adapted cartesian basis functions of B1G symmetry.
 There are    11 symmetry adapted cartesian basis functions of B2G symmetry.
 There are    11 symmetry adapted cartesian basis functions of B3G symmetry.
 There are     3 symmetry adapted cartesian basis functions of AU  symmetry.
 There are    22 symmetry adapted cartesian basis functions of B1U symmetry.
 There are    11 symmetry adapted cartesian basis functions of B2U symmetry.
 There are    11 symmetry adapted cartesian basis functions of B3U symmetry.
 There are    19 symmetry adapted basis functions of AG  symmetry.
 There are     3 symmetry adapted basis functions of B1G symmetry.
 There are    10 symmetry adapted basis functions of B2G symmetry.
 There are    10 symmetry adapted basis functions of B3G symmetry.
 There are     3 symmetry adapted basis functions of AU  symmetry.
 There are    19 symmetry adapted basis functions of B1U symmetry.
 There are    10 symmetry adapted basis functions of B2U symmetry.
 There are    10 symmetry adapted basis functions of B3U symmetry.
    84 basis functions,   138 primitive gaussians,    94 cartesian basis functions
    17 alpha electrons       17 beta electrons
       nuclear repulsion energy        76.6624584134 Hartrees.
 NAtoms=    2 NActive=    2 NUniq=    1 SFac= 4.00D+00 NAtFMM=   60 NAOKFM=F Big=F
 Integral buffers will be    131072 words long.
 Raffenetti 1 integral format.
 Two-electron integral symmetry is turned on.
 One-electron integrals computed using PRISM.
 PrsmSu:  requested number of processors reduced to:   4 ShMem   1 Linda.
 NBasis=    84 RedAO= T EigKep=  4.31D-03  NBF=    19     3    10    10     3    19    10    10
 NBsUse=    84 1.00D-06 EigRej= -1.00D+00 NBFU=    19     3    10    10     3    19    10    10
 Initial guess from the checkpoint file:  "/scratch/aubhfc.Cl2CinfvcomG09.68344/Gau-168454.chk"
 B after Tr=    -0.000000    0.000000    0.000000
         Rot=    1.000000    0.000000    0.000000    0.000000 Ang=   0.00 deg.
 Initial guess orbital symmetries:
       Occupied  (SGG) (SGU) (SGG) (SGU) (SGG) (SGU) (PIU) (PIU)
                 (PIG) (PIG) (SGG) (SGU) (SGG) (PIU) (PIU) (PIG)
                 (PIG)
       Virtual   (SGG) (SGG) (SGG) (SGG) (SGG) (DLTG) (SGG) (SGG)
                 (DLTG) (SGG) (SGG) (DLTG) (SGG) (SGG) (DLTG) (DLTG)
                 (DLTG) (PIG) (PIG) (PIG) (PHIG) (PIG) (PIG) (PIG)
                 (PIG) (PIG) (PIG) (PIG) (PHIG) (PIG) (PIG) (PIG)
                 (PIG) (DLTU) (DLTU) (DLTU) (SGU) (SGU) (SGU) (SGU)
                 (DLTU) (SGU) (SGU) (DLTU) (SGU) (SGU) (DLTU) (SGU)
                 (SGU) (SGU) (SGU) (PIU) (PIU) (PIU) (PIU) (PIU)
                 (PHIU) (PIU) (PIU) (PIU) (PIU) (PIU) (PIU) (PIU)
                 (PHIU) (PIU) (PIU)
 Keep R1 ints in memory in symmetry-blocked form, NReq=8403735.
 Requested convergence on RMS density matrix=1.00D-08 within 128 cycles.
 Requested convergence on MAX density matrix=1.00D-06.
 Requested convergence on             energy=1.00D-06.
 No special actions if energy rises.
 SCF Done:  E(RHF) =  -918.983645402     A.U. after    7 cycles
            NFock=  7  Conv=0.32D-08     -V/T= 2.0000
 ExpMin= 4.83D-02 ExpMax= 1.06D+05 ExpMxC= 3.62D+03 IAcc=3 IRadAn=         5 AccDes= 0.00D+00
 HarFok:  IExCor=  205 AccDes= 0.00D+00 IRadAn=         5 IDoV=-2 UseB2=F ITyADJ=14
 ICtDFT= 12500011 ScaDFX=  1.000000  1.000000  1.000000  1.000000
 Range of M.O.s used for correlation:    11    84
 NBasis=    84 NAE=    17 NBE=    17 NFC=    10 NFV=     0
 NROrb=     74 NOA=     7 NOB=     7 NVA=    67 NVB=    67

 **** Warning!!: The largest alpha MO coefficient is  0.10044921D+02

 Fully direct method using O(ONN) memory.
 JobTyp=1 Pass  1:  I=  11 to  17 NPSUse=  1 ParTrn=F ParDer=F DoDerP=T.
 Spin components of T(2) and E(2):
     alpha-alpha T2 =       0.1811659003D-01 E2=     -0.4590546430D-01
     alpha-beta  T2 =       0.1013106325D+00 E2=     -0.2769023745D+00
     beta-beta   T2 =       0.1811659003D-01 E2=     -0.4590546430D-01
 ANorm=    0.1066556990D+01
 E2 =    -0.3687133031D+00 EUMP2 =    -0.91935235870520D+03
          IDoAtm=11
          Differentiating once with respect to electric field.
                with respect to dipole field.
          Differentiating once with respect to nuclear coordinates.
 Keep R1 ints in memory in symmetry-blocked form, NReq=8371588.
          There are     1 degrees of freedom in the 1st order CPHF.  IDoFFX=0 NUNeed=     1.
 LinEq1:  Iter=  0 NonCon=     1 RMS=3.04D-03 Max=4.87D-02 NDo=     1
 AX will form     1 AO Fock derivatives at one time.
 LinEq1:  Iter=  1 NonCon=     1 RMS=5.70D-04 Max=1.05D-02 NDo=     1
 LinEq1:  Iter=  2 NonCon=     1 RMS=1.51D-04 Max=2.05D-03 NDo=     1
 LinEq1:  Iter=  3 NonCon=     1 RMS=3.59D-05 Max=4.24D-04 NDo=     1
 LinEq1:  Iter=  4 NonCon=     1 RMS=4.72D-06 Max=6.27D-05 NDo=     1
 LinEq1:  Iter=  5 NonCon=     1 RMS=5.13D-07 Max=6.88D-06 NDo=     1
 LinEq1:  Iter=  6 NonCon=     1 RMS=6.63D-08 Max=7.05D-07 NDo=     1
 LinEq1:  Iter=  7 NonCon=     1 RMS=7.95D-09 Max=7.37D-08 NDo=     1
 LinEq1:  Iter=  8 NonCon=     1 RMS=5.06D-10 Max=5.57D-09 NDo=     1
 LinEq1:  Iter=  9 NonCon=     0 RMS=3.62D-11 Max=4.15D-10 NDo=     1
 Linear equations converged to 1.000D-10 1.000D-09 after     9 iterations.
 End of Minotr F.D. properties file   721 does not exist.
 End of Minotr F.D. properties file   722 does not exist.
 End of Minotr F.D. properties file   788 does not exist.
 PrsmSu:  requested number of processors reduced to:   4 ShMem   1 Linda.
 Calling FoFJK, ICntrl=  10002127 FMM=F ISym2X=1 I1Cent= 0 IOpClX= 0 NMat=1 NMatS=1 NMatT=0.
 ***** Axes restored to original set *****
 -------------------------------------------------------------------
 Center     Atomic                   Forces (Hartrees/Bohr)
 Number     Number              X              Y              Z
 -------------------------------------------------------------------
      1       17           0.000000000    0.000000000   -0.000002875
      2       17          -0.000000000   -0.000000000    0.000002875
 -------------------------------------------------------------------
 Cartesian Forces:  Max     0.000002875 RMS     0.000001660

 GradGradGradGradGradGradGradGradGradGradGradGradGradGradGradGradGradGrad
 Berny optimization.
 Using GEDIIS/GDIIS optimizer.
 Internal  Forces:  Max     0.000002875 RMS     0.000002875
 Search for a local minimum.
 Step number   3 out of a maximum of   20
 All quantities printed in internal units (Hartrees-Bohrs-Radians)
 Mixed Optimization -- En-DIIS/RFO-DIIS
 Update second derivatives using D2CorX and points    2    3
 DE= -5.28D-05 DEPred=-5.64D-05 R= 9.37D-01
 TightC=F SS=  1.41D+00  RLast= 2.20D-02 DXNew= 5.0454D-01 6.5901D-02
 Trust test= 9.37D-01 RLast= 2.20D-02 DXMaxT set to 3.00D-01
 The second derivative matrix:
                          R1
           R1           0.21725
 ITU=  1  1
 Use linear search instead of GDIIS.
     Eigenvalues ---    0.21725
 RFO step:  Lambda= 0.00000000D+00 EMin= 2.17251447D-01
 Quartic linear search produced a step of -0.00059.
 Iteration  1 RMS(Cart)=  0.00000911 RMS(Int)=  0.00000000
 Iteration  2 RMS(Cart)=  0.00000000 RMS(Int)=  0.00000000
 ClnCor:  largest displacement from symmetrization is 3.94D-22 for atom     2.
 Variable       Old X    -DE/DX   Delta X   Delta X   Delta X     New X
                                 (Linear)    (Quad)   (Total)
    R1        3.76977   0.00000   0.00001   0.00000   0.00001   3.76979
         Item               Value     Threshold  Converged?
 Maximum Force            0.000003     0.000450     YES
 RMS     Force            0.000003     0.000300     YES
 Maximum Displacement     0.000006     0.001800     YES
 RMS     Displacement     0.000009     0.001200     YES
 Predicted change in Energy=-1.901499D-11
 Optimization completed.
    -- Stationary point found.
                           ----------------------------
                           !   Optimized Parameters   !
                           ! (Angstroms and Degrees)  !
 --------------------------                            --------------------------
 ! Name  Definition              Value          Derivative Info.                !
 --------------------------------------------------------------------------------
 ! R1    R(1,2)                  1.9949         -DE/DX =    0.0                 !
 --------------------------------------------------------------------------------
 GradGradGradGradGradGradGradGradGradGradGradGradGradGradGradGradGradGrad

                          Input orientation:                          
 ---------------------------------------------------------------------
 Center     Atomic      Atomic             Coordinates (Angstroms)
 Number     Number       Type             X           Y           Z
 ---------------------------------------------------------------------
      1         17           0        0.000000    0.000000   -0.997439
      2         17           0        0.000000    0.000000    0.997439
 ---------------------------------------------------------------------
 Stoichiometry    Cl2
 Framework group  D*H[C*(Cl.Cl)]
 Deg. of freedom     1
 Full point group                 D*H     NOp   8
 Largest Abelian subgroup         D2H     NOp   8
 Largest concise Abelian subgroup C2      NOp   2
                         Standard orientation:                         
 ---------------------------------------------------------------------
 Center     Atomic      Atomic             Coordinates (Angstroms)
 Number     Number       Type             X           Y           Z
 ---------------------------------------------------------------------
      1         17           0        0.000000    0.000000    0.997439
      2         17           0        0.000000    0.000000   -0.997439
 ---------------------------------------------------------------------
 Rotational constants (GHZ):      0.0000000      7.2632893      7.2632893

 **********************************************************************

            Population analysis using the SCF density.

 **********************************************************************

 Orbital symmetries:
       Occupied  (SGG) (SGU) (SGG) (SGU) (SGG) (SGU) (PIU) (PIU)
                 (PIG) (PIG) (SGG) (SGU) (SGG) (PIU) (PIU) (PIG)
                 (PIG)
       Virtual   (SGU) (SGG) (PIU) (PIU) (SGU) (SGG) (PIG) (PIG)
                 (SGU) (SGG) (PIU) (PIU) (SGU) (PIU) (PIU) (DLTG)
                 (DLTG) (PIG) (PIG) (DLTU) (DLTU) (SGG) (PIG) (PIG)
                 (SGU) (SGG) (SGU) (PIU) (PIU) (DLTG) (DLTG) (SGG)
                 (PHIU) (PHIU) (PHIG) (PHIG) (DLTU) (DLTU) (PIG)
                 (PIG) (SGU) (PIU) (PIU) (SGG) (DLTG) (DLTG) (PIU)
                 (PIU) (PIG) (PIG) (SGU) (DLTU) (DLTU) (SGG) (PIG)
                 (PIG) (SGU) (SGG) (SGU) (PIU) (PIU) (PIG) (PIG)
                 (SGG) (SGU) (SGG) (SGU)
 The electronic state is 1-SGG.
 Alpha  occ. eigenvalues -- -104.89851-104.89851 -10.62078 -10.62064  -8.08866
 Alpha  occ. eigenvalues --   -8.08840  -8.08535  -8.08535  -8.08534  -8.08534
 Alpha  occ. eigenvalues --   -1.21769  -1.01628  -0.59758  -0.57018  -0.57018
 Alpha  occ. eigenvalues --   -0.44525  -0.44525
 Alpha virt. eigenvalues --    0.02555   0.09951   0.11899   0.11899   0.12212
 Alpha virt. eigenvalues --    0.14807   0.15111   0.15111   0.24334   0.48253
 Alpha virt. eigenvalues --    0.49860   0.49860   0.53859   0.57609   0.57609
 Alpha virt. eigenvalues --    0.58709   0.58709   0.59848   0.59848   0.69185
 Alpha virt. eigenvalues --    0.69185   0.78847   0.90796   0.90796   0.96080
 Alpha virt. eigenvalues --    1.03654   1.43880   2.10124   2.10124   2.19075
 Alpha virt. eigenvalues --    2.19075   2.23450   2.33890   2.33890   2.38283
 Alpha virt. eigenvalues --    2.38283   2.47885   2.47885   2.49951   2.49951
 Alpha virt. eigenvalues --    2.52575   2.55546   2.55546   2.57596   2.67147
 Alpha virt. eigenvalues --    2.67147   2.67831   2.67831   2.68606   2.68606
 Alpha virt. eigenvalues --    2.73874   2.77693   2.77693   3.06372   3.25653
 Alpha virt. eigenvalues --    3.25653   4.38796  10.21751  10.35252  26.52658
 Alpha virt. eigenvalues --   26.52658  26.77420  26.77420  27.02482  28.58819
 Alpha virt. eigenvalues --  219.03673 219.21323
          Condensed to atoms (all electrons):
               1          2
     1  Cl  16.855066   0.144934
     2  Cl   0.144934  16.855066
 Mulliken charges:
               1
     1  Cl  -0.000000
     2  Cl  -0.000000
 Sum of Mulliken charges =  -0.00000
 Mulliken charges with hydrogens summed into heavy atoms:
               1
     1  Cl  -0.000000
     2  Cl  -0.000000
 Electronic spatial extent (au):  <R**2>=            175.5625
 Charge=             -0.0000 electrons
 Dipole moment (field-independent basis, Debye):
    X=             -0.0000    Y=              0.0000    Z=              0.0000  Tot=              0.0000
 Quadrupole moment (field-independent basis, Debye-Ang):
   XX=            -25.6598   YY=            -25.6598   ZZ=            -22.3446
   XY=              0.0000   XZ=              0.0000   YZ=              0.0000
 Traceless Quadrupole moment (field-independent basis, Debye-Ang):
   XX=             -1.1051   YY=             -1.1051   ZZ=              2.2101
   XY=              0.0000   XZ=              0.0000   YZ=              0.0000
 Octapole moment (field-independent basis, Debye-Ang**2):
  XXX=             -0.0000  YYY=              0.0000  ZZZ=              0.0000  XYY=             -0.0000
  XXY=              0.0000  XXZ=              0.0000  XZZ=             -0.0000  YZZ=              0.0000
  YYZ=              0.0000  XYZ=              0.0000
 Hexadecapole moment (field-independent basis, Debye-Ang**3):
 XXXX=            -29.3214 YYYY=            -29.3214 ZZZZ=           -151.4010 XXXY=              0.0000
 XXXZ=              0.0000 YYYX=              0.0000 YYYZ=              0.0000 ZZZX=              0.0000
 ZZZY=              0.0000 XXYY=             -9.7738 XXZZ=            -35.2575 YYZZ=            -35.2575
 XXYZ=              0.0000 YYXZ=              0.0000 ZZXY=             -0.0000
 N-N= 7.666245841337D+01 E-N=-2.341426041067D+03  KE= 9.189724266341D+02
 Symmetry AG   KE= 3.694330026614D+02
 Symmetry B1G  KE= 1.687718303320D-34
 Symmetry B2G  KE= 4.634119750844D+01
 Symmetry B3G  KE= 4.634119750844D+01
 Symmetry AU   KE= 3.704139900812D-34
 Symmetry B1U  KE= 3.657008775599D+02
 Symmetry B2U  KE= 4.557807569798D+01
 Symmetry B3U  KE= 4.557807569798D+01
 1\1\GINC-UV1\FOpt\RMP2-FC\6-311++G(2df,2pd)\Cl2\AUBHFC\31-Jan-2017\0\\
 #mp2/6-311++g(2df,2pd) opt freq\\Cl2_Cinfv\\0,1\Cl,0.,0.,-0.9974387493
 \Cl,0.,0.,0.9974387493\\Version=ES64L-G09RevE.01\State=1-SGG\HF=-918.9
 836454\MP2=-919.3523587\RMSD=3.195e-09\RMSF=1.660e-06\Dipole=0.,0.,0.\
 PG=D*H [C*(Cl1.Cl1)]\\@


 AN OPTIMIST IS A GUY
 THAT HAS NEVER HAD
 MUCH EXPERIENCE
   (CERTAIN MAXIMS OF ARCHY  -- DON MARQUIS)
 Job cpu time:       0 days  0 hours 16 minutes 25.2 seconds.
 File lengths (MBytes):  RWF=     82 Int=      0 D2E=      0 Chk=      2 Scr=      2
 Normal termination of Gaussian 09 at Tue Jan 31 23:14:10 2017.
 Link1:  Proceeding to internal job step number  2.
 ----------------------------------------------------------------------
 #N Geom=AllCheck Guess=TCheck SCRF=Check GenChk RMP2(FC)/6-311++G(2df,
 2pd) Freq
 ----------------------------------------------------------------------
 1/10=4,29=7,30=1,38=1,40=1/1,3;
 2/12=2,40=1/2;
 3/5=4,6=6,7=1414,11=1,14=-4,16=1,25=1,30=1,70=2,71=2,116=1,140=1/1,2,3;
 4/5=101/1;
 5/5=2,38=6,98=1/2;
 8/6=3,8=1,10=2,19=11,30=-1/1;
 9/15=3,16=-3/6;
 11/6=1,8=1,15=11,17=12,24=-1,27=1,28=-2,29=300,32=6,42=3/1,2,10;
 10/6=2,21=1/2;
 8/6=4,8=1,10=2,19=11,30=-1/11,4;
 10/5=1,20=4/2;
 11/12=2,14=11,16=1,17=2,28=-2,42=3/2,10,12;
 6/7=2,8=2,9=2,10=2/1;
 7/8=1,10=1,12=2,25=1,44=2/1,2,3,16;
 1/10=4,30=1/3;
 99//99;
 Structure from the checkpoint file:  "/scratch/aubhfc.Cl2CinfvcomG09.68344/Gau-168454.chk"
 ---------
 Cl2_Cinfv
 ---------
 Charge =  0 Multiplicity = 1
 Redundant internal coordinates found in file.
 Cl,0,0.,0.,-0.9974387493
 Cl,0,0.,0.,0.9974387493
 Recover connectivity data from disk.

 GradGradGradGradGradGradGradGradGradGradGradGradGradGradGradGradGradGrad
 Berny optimization.
 Initialization pass.
                           ----------------------------
                           !    Initial Parameters    !
                           ! (Angstroms and Degrees)  !
 --------------------------                            --------------------------
 ! Name  Definition              Value          Derivative Info.                !
 --------------------------------------------------------------------------------
 ! R1    R(1,2)                  1.9949         calculate D2E/DX2 analytically  !
 --------------------------------------------------------------------------------
 Trust Radius=3.00D-01 FncErr=1.00D-07 GrdErr=1.00D-07
 Number of steps in this run=      2 maximum allowed number of steps=      2.
 GradGradGradGradGradGradGradGradGradGradGradGradGradGradGradGradGradGrad

                          Input orientation:                          
 ---------------------------------------------------------------------
 Center     Atomic      Atomic             Coordinates (Angstroms)
 Number     Number       Type             X           Y           Z
 ---------------------------------------------------------------------
      1         17           0        0.000000    0.000000   -0.997439
      2         17           0        0.000000    0.000000    0.997439
 ---------------------------------------------------------------------
 Stoichiometry    Cl2
 Framework group  D*H[C*(Cl.Cl)]
 Deg. of freedom     1
 Full point group                 D*H     NOp   8
 Largest Abelian subgroup         D2H     NOp   8
 Largest concise Abelian subgroup C2      NOp   2
                         Standard orientation:                         
 ---------------------------------------------------------------------
 Center     Atomic      Atomic             Coordinates (Angstroms)
 Number     Number       Type             X           Y           Z
 ---------------------------------------------------------------------
      1         17           0        0.000000    0.000000    0.997439
      2         17           0        0.000000    0.000000   -0.997439
 ---------------------------------------------------------------------
 Rotational constants (GHZ):      0.0000000      7.2632893      7.2632893
 Standard basis: 6-311++G(2df,2pd) (5D, 7F)
 There are    22 symmetry adapted cartesian basis functions of AG  symmetry.
 There are     3 symmetry adapted cartesian basis functions of B1G symmetry.
 There are    11 symmetry adapted cartesian basis functions of B2G symmetry.
 There are    11 symmetry adapted cartesian basis functions of B3G symmetry.
 There are     3 symmetry adapted cartesian basis functions of AU  symmetry.
 There are    22 symmetry adapted cartesian basis functions of B1U symmetry.
 There are    11 symmetry adapted cartesian basis functions of B2U symmetry.
 There are    11 symmetry adapted cartesian basis functions of B3U symmetry.
 There are    19 symmetry adapted basis functions of AG  symmetry.
 There are     3 symmetry adapted basis functions of B1G symmetry.
 There are    10 symmetry adapted basis functions of B2G symmetry.
 There are    10 symmetry adapted basis functions of B3G symmetry.
 There are     3 symmetry adapted basis functions of AU  symmetry.
 There are    19 symmetry adapted basis functions of B1U symmetry.
 There are    10 symmetry adapted basis functions of B2U symmetry.
 There are    10 symmetry adapted basis functions of B3U symmetry.
    84 basis functions,   138 primitive gaussians,    94 cartesian basis functions
    17 alpha electrons       17 beta electrons
       nuclear repulsion energy        76.6624584134 Hartrees.
 NAtoms=    2 NActive=    2 NUniq=    1 SFac= 4.00D+00 NAtFMM=   60 NAOKFM=F Big=F
 Integral buffers will be    131072 words long.
 Raffenetti 1 integral format.
 Two-electron integral symmetry is turned on.
 One-electron integrals computed using PRISM.
 PrsmSu:  requested number of processors reduced to:   4 ShMem   1 Linda.
 NBasis=    84 RedAO= T EigKep=  4.31D-03  NBF=    19     3    10    10     3    19    10    10
 NBsUse=    84 1.00D-06 EigRej= -1.00D+00 NBFU=    19     3    10    10     3    19    10    10
 Initial guess from the checkpoint file:  "/scratch/aubhfc.Cl2CinfvcomG09.68344/Gau-168454.chk"
 B after Tr=     0.000000    0.000000    0.000000
         Rot=    1.000000    0.000000    0.000000    0.000000 Ang=   0.00 deg.
 Initial guess orbital symmetries:
       Occupied  (SGG) (SGU) (SGG) (SGU) (SGG) (SGU) (PIU) (PIU)
                 (PIG) (PIG) (SGG) (SGU) (SGG) (PIU) (PIU) (PIG)
                 (PIG)
       Virtual   (SGU) (SGG) (PIU) (PIU) (SGU) (SGG) (PIG) (PIG)
                 (SGU) (SGG) (PIU) (PIU) (SGU) (PIU) (PIU) (DLTG)
                 (DLTG) (PIG) (PIG) (DLTU) (DLTU) (SGG) (PIG) (PIG)
                 (SGU) (SGG) (SGU) (PIU) (PIU) (DLTG) (DLTG) (SGG)
                 (PHIU) (PHIU) (PHIG) (PHIG) (DLTU) (DLTU) (PIG)
                 (PIG) (SGU) (PIU) (PIU) (SGG) (DLTG) (DLTG) (PIU)
                 (PIU) (PIG) (PIG) (SGU) (DLTU) (DLTU) (SGG) (PIG)
                 (PIG) (SGU) (SGG) (SGU) (PIU) (PIU) (PIG) (PIG)
                 (SGG) (SGU) (SGG) (SGU)
 Keep R1 ints in memory in symmetry-blocked form, NReq=8403735.
 Requested convergence on RMS density matrix=1.00D-08 within 128 cycles.
 Requested convergence on MAX density matrix=1.00D-06.
 Requested convergence on             energy=1.00D-06.
 No special actions if energy rises.
 SCF Done:  E(RHF) =  -918.983645402     A.U. after    1 cycles
            NFock=  1  Conv=0.58D-09     -V/T= 2.0000
 ExpMin= 4.83D-02 ExpMax= 1.06D+05 ExpMxC= 3.62D+03 IAcc=3 IRadAn=         5 AccDes= 0.00D+00
 HarFok:  IExCor=  205 AccDes= 0.00D+00 IRadAn=         5 IDoV=-2 UseB2=F ITyADJ=14
 ICtDFT= 12500011 ScaDFX=  1.000000  1.000000  1.000000  1.000000
 Range of M.O.s used for correlation:    11    84
 NBasis=    84 NAE=    17 NBE=    17 NFC=    10 NFV=     0
 NROrb=     74 NOA=     7 NOB=     7 NVA=    67 NVB=    67

 **** Warning!!: The largest alpha MO coefficient is  0.10044921D+02

 Disk-based method using ON**2 memory for  7 occupieds at a time.
 Permanent disk used for amplitudes=     1598017 words.
 Estimated scratch disk usage=     5762288 words.
 Actual    scratch disk usage=     5762288 words.
 GetIJB would need an additional    51728179 words of memory to use all   8 processors.
 JobTyp=1 Pass  1:  I=  11 to  17 NPSUse=  3 ParTrn=F ParDer=T DoDerP=T.
 (rs|ai) integrals will be sorted in core.
 PrsmSu:  requested number of processors reduced to:   4 ShMem   1 Linda.
 Spin components of T(2) and E(2):
     alpha-alpha T2 =       0.1811658980D-01 E2=     -0.4590546386D-01
     alpha-beta  T2 =       0.1013106317D+00 E2=     -0.2769023732D+00
     beta-beta   T2 =       0.1811658980D-01 E2=     -0.4590546386D-01
 ANorm=    0.1066556989D+01
 E2 =    -0.3687133010D+00 EUMP2 =    -0.91935235870307D+03
 PrsmSu:  requested number of processors reduced to:   4 ShMem   1 Linda.
 G2DrvN: will do     3 centers at a time, making    1 passes.
 Calling FoFCou, ICntrl=  3107 FMM=F I1Cent=   0 AccDes= 0.00D+00.
 End of G2Drv F.D. properties file   721 does not exist.
 End of G2Drv F.D. properties file   722 does not exist.
 End of G2Drv F.D. properties file   788 does not exist.
          IDoAtm=11
          Differentiating once with respect to electric field.
                with respect to dipole field.
          Differentiating once with respect to nuclear coordinates.
 Keep R1 ints in memory in symmetry-blocked form, NReq=8371030.
          There are     9 degrees of freedom in the 1st order CPHF.  IDoFFX=6 NUNeed=     9.
      6 vectors produced by pass  0 Test12= 1.27D-14 1.11D-08 XBig12= 1.24D+01 2.81D+00.
 AX will form     6 AO Fock derivatives at one time.
      6 vectors produced by pass  1 Test12= 1.27D-14 1.11D-08 XBig12= 1.26D+00 3.39D-01.
      6 vectors produced by pass  2 Test12= 1.27D-14 1.11D-08 XBig12= 8.99D-02 1.17D-01.
      6 vectors produced by pass  3 Test12= 1.27D-14 1.11D-08 XBig12= 3.71D-03 2.42D-02.
      6 vectors produced by pass  4 Test12= 1.27D-14 1.11D-08 XBig12= 7.30D-05 2.82D-03.
      6 vectors produced by pass  5 Test12= 1.27D-14 1.11D-08 XBig12= 7.11D-07 2.98D-04.
      6 vectors produced by pass  6 Test12= 1.27D-14 1.11D-08 XBig12= 5.31D-09 2.63D-05.
      6 vectors produced by pass  7 Test12= 1.27D-14 1.11D-08 XBig12= 3.28D-11 1.80D-06.
      4 vectors produced by pass  8 Test12= 1.27D-14 1.11D-08 XBig12= 3.44D-13 1.95D-07.
      1 vectors produced by pass  9 Test12= 1.27D-14 1.11D-08 XBig12= 3.05D-15 1.55D-08.
 InvSVY:  IOpt=1 It=  1 EMax= 3.33D-16
 Solved reduced A of dimension    53 with     6 vectors.
 End of Minotr F.D. properties file   721 does not exist.
 End of Minotr F.D. properties file   722 does not exist.
 End of Minotr F.D. properties file   788 does not exist.
 MDV=    33554432.
 Form MO integral derivatives with frozen-active canonical formalism.
 Discarding MO integrals.
 Reordered first order wavefunction length =      2594642
 In DefCFB: NBatch=  1 ICI= 17 ICA= 67 LFMax= 23
            Large arrays: LIAPS=    35974176 LIARS=    35224714 words.
 Semi-Direct transformation.
 ModeAB=           4 MOrb=            17 LenV=      33215123
 LASXX=      4280566 LTotXX=     4280566 LenRXX=     8718739
 LTotAB=     4438173 MaxLAS=     3477180 LenRXY=           0
 NonZer=    12999305 LenScr=    19922944 LnRSAI=     3477180
 LnScr1=     5505024 LExtra=           0 Total=     37623887
 MaxDsk=          -1 SrtSym=           T ITran=            4
 GetIJB would need an additional    16072804 words of memory to use all   8 processors.
 JobTyp=0 Pass  1:  I=   1 to  17.
 Spin components of T(2) and E(2):
     alpha-alpha T2 =       0.1811658980D-01 E2=     -0.4590546386D-01
     alpha-beta  T2 =       0.1013106317D+00 E2=     -0.2769023732D+00
     beta-beta   T2 =       0.1811658980D-01 E2=     -0.4590546386D-01
 ANorm=    0.1508339359D+01
 E2 =    -0.3687133010D+00 EUMP2 =    -0.91935235870307D+03
          IDoAtm=11
          Differentiating once with respect to electric field.
                with respect to dipole field.
          Differentiating once with respect to nuclear coordinates.
          There are     1 degrees of freedom in the 1st order CPHF.  IDoFFX=0 NUNeed=     1.
 LinEq1:  Iter=  0 NonCon=     1 RMS=3.04D-03 Max=4.87D-02 NDo=     1
 LinEq1:  Iter=  1 NonCon=     1 RMS=5.70D-04 Max=1.05D-02 NDo=     1
 LinEq1:  Iter=  2 NonCon=     1 RMS=1.51D-04 Max=2.05D-03 NDo=     1
 LinEq1:  Iter=  3 NonCon=     1 RMS=3.59D-05 Max=4.24D-04 NDo=     1
 LinEq1:  Iter=  4 NonCon=     1 RMS=4.72D-06 Max=6.27D-05 NDo=     1
 LinEq1:  Iter=  5 NonCon=     1 RMS=5.13D-07 Max=6.88D-06 NDo=     1
 LinEq1:  Iter=  6 NonCon=     1 RMS=6.63D-08 Max=7.05D-07 NDo=     1
 LinEq1:  Iter=  7 NonCon=     1 RMS=7.95D-09 Max=7.37D-08 NDo=     1
 LinEq1:  Iter=  8 NonCon=     1 RMS=5.06D-10 Max=5.57D-09 NDo=     1
 LinEq1:  Iter=  9 NonCon=     0 RMS=3.62D-11 Max=4.15D-10 NDo=     1
 Linear equations converged to 1.000D-10 1.000D-09 after     9 iterations.
 End of Minotr F.D. properties file   721 does not exist.
 End of Minotr F.D. properties file   722 does not exist.
 End of Minotr F.D. properties file   788 does not exist.
 Symmetrizing basis deriv contribution to polar:
 IMax=3 JMax=2 DiffMx= 0.00D+00
 G2DrvN: will do     3 centers at a time, making    1 passes.
 Calling FoFCou, ICntrl=  3107 FMM=F I1Cent=   0 AccDes= 0.00D+00.
 End of G2Drv F.D. properties file   721 does not exist.
 End of G2Drv F.D. properties file   722 does not exist.
 End of G2Drv F.D. properties file   788 does not exist.
 R2 and R3 integrals will be kept in memory, NReq=    21880690.
 CoulSu:  requested number of processors reduced to:   6 ShMem   1 Linda.
 DD1Dir will call FoFMem   1 times, MxPair=       306
 NAB=   153 NAA=     0 NBB=     0.
 Discarding MO integrals.

 **********************************************************************

            Population analysis using the SCF density.

 **********************************************************************

 Orbital symmetries:
       Occupied  (SGG) (SGU) (SGG) (SGU) (SGG) (SGU) (PIU) (PIU)
                 (PIG) (PIG) (SGG) (SGU) (SGG) (PIU) (PIU) (PIG)
                 (PIG)
       Virtual   (SGU) (SGG) (PIU) (PIU) (SGU) (SGG) (PIG) (PIG)
                 (SGU) (SGG) (PIU) (PIU) (SGU) (PIU) (PIU) (DLTG)
                 (DLTG) (PIG) (PIG) (DLTU) (DLTU) (SGG) (PIG) (PIG)
                 (SGU) (SGG) (SGU) (PIU) (PIU) (DLTG) (DLTG) (SGG)
                 (PHIU) (PHIU) (PHIG) (PHIG) (DLTU) (DLTU) (PIG)
                 (PIG) (SGU) (PIU) (PIU) (SGG) (DLTG) (DLTG) (PIU)
                 (PIU) (PIG) (PIG) (SGU) (DLTU) (DLTU) (SGG) (PIG)
                 (PIG) (SGU) (SGG) (SGU) (PIU) (PIU) (PIG) (PIG)
                 (SGG) (SGU) (SGG) (SGU)
 The electronic state is 1-SGG.
 Alpha  occ. eigenvalues -- -104.89851-104.89851 -10.62078 -10.62064  -8.08866
 Alpha  occ. eigenvalues --   -8.08840  -8.08535  -8.08535  -8.08534  -8.08534
 Alpha  occ. eigenvalues --   -1.21768  -1.01628  -0.59758  -0.57018  -0.57018
 Alpha  occ. eigenvalues --   -0.44525  -0.44525
 Alpha virt. eigenvalues --    0.02555   0.09951   0.11899   0.11899   0.12212
 Alpha virt. eigenvalues --    0.14807   0.15111   0.15111   0.24334   0.48253
 Alpha virt. eigenvalues --    0.49860   0.49860   0.53859   0.57609   0.57609
 Alpha virt. eigenvalues --    0.58709   0.58709   0.59848   0.59848   0.69185
 Alpha virt. eigenvalues --    0.69185   0.78847   0.90796   0.90796   0.96080
 Alpha virt. eigenvalues --    1.03654   1.43880   2.10124   2.10124   2.19075
 Alpha virt. eigenvalues --    2.19075   2.23450   2.33890   2.33890   2.38283
 Alpha virt. eigenvalues --    2.38283   2.47885   2.47885   2.49951   2.49951
 Alpha virt. eigenvalues --    2.52575   2.55546   2.55546   2.57596   2.67147
 Alpha virt. eigenvalues --    2.67147   2.67831   2.67831   2.68606   2.68606
 Alpha virt. eigenvalues --    2.73874   2.77693   2.77693   3.06372   3.25653
 Alpha virt. eigenvalues --    3.25653   4.38796  10.21751  10.35252  26.52658
 Alpha virt. eigenvalues --   26.52658  26.77420  26.77420  27.02482  28.58819
 Alpha virt. eigenvalues --  219.03673 219.21323
          Condensed to atoms (all electrons):
               1          2
     1  Cl  16.855066   0.144934
     2  Cl   0.144934  16.855066
 Mulliken charges:
               1
     1  Cl   0.000000
     2  Cl   0.000000
 Sum of Mulliken charges =   0.00000
 Mulliken charges with hydrogens summed into heavy atoms:
               1
     1  Cl   0.000000
     2  Cl   0.000000
 APT charges:
               1
     1  Cl  -0.000000
     2  Cl  -0.000000
 Sum of APT charges =  -0.00000
 APT charges with hydrogens summed into heavy atoms:
               1
     1  Cl  -0.000000
     2  Cl  -0.000000
 Electronic spatial extent (au):  <R**2>=            175.5625
 Charge=              0.0000 electrons
 Dipole moment (field-independent basis, Debye):
    X=             -0.0000    Y=             -0.0000    Z=             -0.0000  Tot=              0.0000
 Quadrupole moment (field-independent basis, Debye-Ang):
   XX=            -25.6598   YY=            -25.6598   ZZ=            -22.3446
   XY=              0.0000   XZ=              0.0000   YZ=              0.0000
 Traceless Quadrupole moment (field-independent basis, Debye-Ang):
   XX=             -1.1051   YY=             -1.1051   ZZ=              2.2101
   XY=              0.0000   XZ=              0.0000   YZ=              0.0000
 Octapole moment (field-independent basis, Debye-Ang**2):
  XXX=             -0.0000  YYY=              0.0000  ZZZ=              0.0000  XYY=             -0.0000
  XXY=              0.0000  XXZ=             -0.0000  XZZ=             -0.0000  YZZ=              0.0000
  YYZ=             -0.0000  XYZ=              0.0000
 Hexadecapole moment (field-independent basis, Debye-Ang**3):
 XXXX=            -29.3214 YYYY=            -29.3214 ZZZZ=           -151.4010 XXXY=              0.0000
 XXXZ=              0.0000 YYYX=              0.0000 YYYZ=              0.0000 ZZZX=              0.0000
 ZZZY=              0.0000 XXYY=             -9.7738 XXZZ=            -35.2575 YYZZ=            -35.2575
 XXYZ=              0.0000 YYXZ=              0.0000 ZZXY=             -0.0000
 N-N= 7.666245841337D+01 E-N=-2.341426041047D+03  KE= 9.189724267194D+02
 Symmetry AG   KE= 3.694330027661D+02
 Symmetry B1G  KE= 1.687718361794D-34
 Symmetry B2G  KE= 4.634119748345D+01
 Symmetry B3G  KE= 4.634119748345D+01
 Symmetry AU   KE= 3.704139486399D-34
 Symmetry B1U  KE= 3.657008776231D+02
 Symmetry B2U  KE= 4.557807568162D+01
 Symmetry B3U  KE= 4.557807568162D+01
  Exact polarizability:  18.656  -0.000  18.656  -0.000   0.000  36.555
 Approx polarizability:  18.584  -0.000  18.584  -0.000  -0.000  36.022
 PrsmSu:  requested number of processors reduced to:   4 ShMem   1 Linda.
 PrsmSu:  requested number of processors reduced to:   4 ShMem   1 Linda.
 Calling FoFJK, ICntrl=  10100127 FMM=F ISym2X=1 I1Cent= 0 IOpClX= 0 NMat=1 NMatS=1 NMatT=0.
 CoulSu:  requested number of processors reduced to:   4 ShMem   1 Linda.
 Full mass-weighted force constant matrix:
 Low frequencies ---   -1.0744   -1.0744    0.0018    0.0039    0.0039  580.9167
 Diagonal vibrational polarizability:
        0.0000000       0.0000000       0.0000000
 Harmonic frequencies (cm**-1), IR intensities (KM/Mole), Raman scattering
 activities (A**4/AMU), depolarization ratios for plane and unpolarized
 incident light, reduced masses (AMU), force constants (mDyne/A),
 and normal coordinates:
                      1
                     SGG
 Frequencies --    580.9167
 Red. masses --     34.9689
 Frc consts  --      6.9528
 IR Inten    --      0.0000
  Atom  AN      X      Y      Z
     1  17    -0.00   0.00   0.71
     2  17     0.00   0.00  -0.71

 -------------------
 - Thermochemistry -
 -------------------
 Temperature   298.150 Kelvin.  Pressure   1.00000 Atm.
 Atom     1 has atomic number 17 and mass  34.96885
 Atom     2 has atomic number 17 and mass  34.96885
 Molecular mass:    69.93771 amu.
 Principal axes and moments of inertia in atomic units:
                           1         2         3
     Eigenvalues --    -0.00000 248.47437 248.47437
           X           -0.00000   1.00000  -0.00000
           Y            0.00000   0.00000   1.00000
           Z            1.00000   0.00000  -0.00000
 This molecule is a prolate symmetric top.
 Rotational symmetry number  2.
 Rotational temperature (Kelvin)      0.34858
 Rotational constant (GHZ):           7.263289
 Zero-point vibrational energy       3474.7 (Joules/Mol)
                                    0.83046 (Kcal/Mol)
 Warning -- explicit consideration of   1 degrees of freedom as
           vibrations may cause significant error
 Vibrational temperatures:    835.81
          (Kelvin)
 
 Zero-point correction=                           0.001323 (Hartree/Particle)
 Thermal correction to Energy=                    0.003855
 Thermal correction to Enthalpy=                  0.004799
 Thermal correction to Gibbs Free Energy=        -0.020460
 Sum of electronic and zero-point Energies=           -919.351035
 Sum of electronic and thermal Energies=              -919.348504
 Sum of electronic and thermal Enthalpies=            -919.347560
 Sum of electronic and thermal Free Energies=         -919.372819
 
                     E (Thermal)             CV                S
                      KCal/Mol        Cal/Mol-Kelvin    Cal/Mol-Kelvin
 Total                    2.419              6.041             53.162
 Electronic               0.000              0.000              0.000
 Translational            0.889              2.981             38.652
 Rotational               0.592              1.987             14.026
 Vibrational              0.938              1.073              0.484
 Vibration     1          0.938              1.073              0.484
                       Q            Log10(Q)             Ln(Q)
 Total Bot       0.257658D+10          9.411043         21.669727
 Total V=0       0.104659D+11         10.019775         23.071385
 Vib (Bot)       0.262072D+00         -0.581579         -1.339134
 Vib (Bot)    1  0.262072D+00         -0.581579         -1.339134
 Vib (V=0)       0.106452D+01          0.027154          0.062523
 Vib (V=0)    1  0.106452D+01          0.027154          0.062523
 Electronic      0.100000D+01          0.000000          0.000000
 Translational   0.229891D+08          7.361522         16.950531
 Rotational      0.427661D+03          2.631099          6.058330
 ***** Axes restored to original set *****
 -------------------------------------------------------------------
 Center     Atomic                   Forces (Hartrees/Bohr)
 Number     Number              X              Y              Z
 -------------------------------------------------------------------
      1       17           0.000000000    0.000000000   -0.000002867
      2       17          -0.000000000   -0.000000000    0.000002867
 -------------------------------------------------------------------
 Cartesian Forces:  Max     0.000002867 RMS     0.000001655
 FormGI is forming the generalized inverse of G from B-inverse, IUseBI=4.

 GradGradGradGradGradGradGradGradGradGradGradGradGradGradGradGradGradGrad
 Berny optimization.
 Internal  Forces:  Max     0.000002867 RMS     0.000002867
 Search for a local minimum.
 Step number   1 out of a maximum of    2
 All quantities printed in internal units (Hartrees-Bohrs-Radians)
 Second derivative matrix not updated -- analytic derivatives used.
 The second derivative matrix:
                          R1
           R1           0.22329
 ITU=  0
     Eigenvalues ---    0.22329
 Angle between quadratic step and forces=   0.00 degrees.
 Linear search not attempted -- first point.
 Iteration  1 RMS(Cart)=  0.00000908 RMS(Int)=  0.00000000
 Iteration  2 RMS(Cart)=  0.00000000 RMS(Int)=  0.00000000
 ClnCor:  largest displacement from symmetrization is 3.93D-22 for atom     1.
 Variable       Old X    -DE/DX   Delta X   Delta X   Delta X     New X
                                 (Linear)    (Quad)   (Total)
    R1        3.76977   0.00000   0.00000   0.00001   0.00001   3.76978
         Item               Value     Threshold  Converged?
 Maximum Force            0.000003     0.000450     YES
 RMS     Force            0.000003     0.000300     YES
 Maximum Displacement     0.000006     0.001800     YES
 RMS     Displacement     0.000009     0.001200     YES
 Predicted change in Energy=-1.840052D-11
 Optimization completed.
    -- Stationary point found.
                           ----------------------------
                           !   Optimized Parameters   !
                           ! (Angstroms and Degrees)  !
 --------------------------                            --------------------------
 ! Name  Definition              Value          Derivative Info.                !
 --------------------------------------------------------------------------------
 ! R1    R(1,2)                  1.9949         -DE/DX =    0.0                 !
 --------------------------------------------------------------------------------
 GradGradGradGradGradGradGradGradGradGradGradGradGradGradGradGradGradGrad

 1\1\GINC-UV1\Freq\RMP2-FC\6-311++G(2df,2pd)\Cl2\AUBHFC\31-Jan-2017\0\\
 #N Geom=AllCheck Guess=TCheck SCRF=Check GenChk RMP2(FC)/6-311++G(2df,
 2pd) Freq\\Cl2_Cinfv\\0,1\Cl,0.,0.,-0.9974387493\Cl,0.,0.,0.9974387493
 \\Version=ES64L-G09RevE.01\State=1-SGG\HF=-918.9836454\MP2=-919.352358
 7\RMSD=5.761e-10\RMSF=1.655e-06\ZeroPoint=0.0013234\Thermal=0.0038547\
 Dipole=0.,0.,0.\DipoleDeriv=0.,0.,0.,0.,0.,0.,0.,0.,0.,0.,0.,0.,0.,0.,
 0.,0.,0.,0.\Polar=18.6560848,0.,18.6560848,0.,0.,36.5548872\PG=D*H [C*
 (Cl1.Cl1)]\NImag=0\\-0.00000076,0.,-0.00000076,0.,0.,0.22329065,0.0000
 0076,0.,0.,-0.00000076,0.,0.00000076,0.,0.,-0.00000076,0.,0.,-0.223290
 65,0.,0.,0.22329065\\0.,0.,0.00000287,0.,0.,-0.00000287\\\@


 WE STILL HAVE JUDGEMENT HERE,
 THAT WE TEACH BUT BLOODY INSTRUCTIONS,
 WHICH, BEING TAUGHT,
 RETURN TO PLAGUE THE INVENTOR.
           MACBETH ACT I, SCENE VII
 Job cpu time:       0 days  1 hours  3 minutes  0.4 seconds.
 File lengths (MBytes):  RWF=    667 Int=      0 D2E=      0 Chk=      2 Scr=      2
 Normal termination of Gaussian 09 at Tue Jan 31 23:26:48 2017.
